+ 0.1 0 1 cbr 3500 ------- 0 0.0 1.0 0 0
- 0.1 0 1 cbr 3500 ------- 0 0.0 1.0 0 0
r 0.124 0 1 cbr 3500 ------- 0 0.0 1.0 0 0
+ 0.156 0 1 cbr 3500 ------- 0 0.0 1.0 1 1
- 0.156 0 1 cbr 3500 ------- 0 0.0 1.0 1 1
r 0.18 0 1 cbr 3500 ------- 0 0.0 1.0 1 1
+ 0.212 0 1 cbr 3500 ------- 0 0.0 1.0 2 2
- 0.212 0 1 cbr 3500 ------- 0 0.0 1.0 2 2
r 0.236 0 1 cbr 3500 ------- 0 0.0 1.0 2 2
+ 0.268 0 1 cbr 3500 ------- 0 0.0 1.0 3 3
- 0.268 0 1 cbr 3500 ------- 0 0.0 1.0 3 3
r 0.292 0 1 cbr 3500 ------- 0 0.0 1.0 3 3
+ 0.324 0 1 cbr 3500 ------- 0 0.0 1.0 4 4
- 0.324 0 1 cbr 3500 ------- 0 0.0 1.0 4 4
r 0.348 0 1 cbr 3500 ------- 0 0.0 1.0 4 4
+ 0.38 0 1 cbr 3500 ------- 0 0.0 1.0 5 5
- 0.38 0 1 cbr 3500 ------- 0 0.0 1.0 5 5
r 0.404 0 1 cbr 3500 ------- 0 0.0 1.0 5 5
+ 0.436 0 1 cbr 3500 ------- 0 0.0 1.0 6 6
- 0.436 0 1 cbr 3500 ------- 0 0.0 1.0 6 6
r 0.46 0 1 cbr 3500 ------- 0 0.0 1.0 6 6
+ 0.492 0 1 cbr 3500 ------- 0 0.0 1.0 7 7
- 0.492 0 1 cbr 3500 ------- 0 0.0 1.0 7 7
r 0.516 0 1 cbr 3500 ------- 0 0.0 1.0 7 7
+ 0.548 0 1 cbr 3500 ------- 0 0.0 1.0 8 8
- 0.548 0 1 cbr 3500 ------- 0 0.0 1.0 8 8
r 0.572 0 1 cbr 3500 ------- 0 0.0 1.0 8 8
+ 0.604 0 1 cbr 3500 ------- 0 0.0 1.0 9 9
- 0.604 0 1 cbr 3500 ------- 0 0.0 1.0 9 9
r 0.628 0 1 cbr 3500 ------- 0 0.0 1.0 9 9
+ 0.66 0 1 cbr 3500 ------- 0 0.0 1.0 10 10
- 0.66 0 1 cbr 3500 ------- 0 0.0 1.0 10 10
r 0.684 0 1 cbr 3500 ------- 0 0.0 1.0 10 10
+ 0.716 0 1 cbr 3500 ------- 0 0.0 1.0 11 11
- 0.716 0 1 cbr 3500 ------- 0 0.0 1.0 11 11
r 0.74 0 1 cbr 3500 ------- 0 0.0 1.0 11 11
+ 0.772 0 1 cbr 3500 ------- 0 0.0 1.0 12 12
- 0.772 0 1 cbr 3500 ------- 0 0.0 1.0 12 12
r 0.796 0 1 cbr 3500 ------- 0 0.0 1.0 12 12
+ 0.828 0 1 cbr 3500 ------- 0 0.0 1.0 13 13
- 0.828 0 1 cbr 3500 ------- 0 0.0 1.0 13 13
r 0.852 0 1 cbr 3500 ------- 0 0.0 1.0 13 13
+ 0.884 0 1 cbr 3500 ------- 0 0.0 1.0 14 14
- 0.884 0 1 cbr 3500 ------- 0 0.0 1.0 14 14
r 0.908 0 1 cbr 3500 ------- 0 0.0 1.0 14 14
+ 0.94 0 1 cbr 3500 ------- 0 0.0 1.0 15 15
- 0.94 0 1 cbr 3500 ------- 0 0.0 1.0 15 15
r 0.964 0 1 cbr 3500 ------- 0 0.0 1.0 15 15
+ 0.996 0 1 cbr 3500 ------- 0 0.0 1.0 16 16
- 0.996 0 1 cbr 3500 ------- 0 0.0 1.0 16 16
r 1.02 0 1 cbr 3500 ------- 0 0.0 1.0 16 16
+ 1.052 0 1 cbr 3500 ------- 0 0.0 1.0 17 17
- 1.052 0 1 cbr 3500 ------- 0 0.0 1.0 17 17
r 1.076 0 1 cbr 3500 ------- 0 0.0 1.0 17 17
+ 1.1 0 1 cbr 700 ------- 1 0.1 1.1 0 18
- 1.1 0 1 cbr 700 ------- 1 0.1 1.1 0 18
+ 1.1056 0 1 cbr 700 ------- 1 0.1 1.1 1 19
- 1.1056 0 1 cbr 700 ------- 1 0.1 1.1 1 19
+ 1.108 0 1 cbr 3500 ------- 0 0.0 1.0 18 20
- 1.1084 0 1 cbr 3500 ------- 0 0.0 1.0 18 20
+ 1.1112 0 1 cbr 700 ------- 1 0.1 1.1 2 21
r 1.1128 0 1 cbr 700 ------- 1 0.1 1.1 0 18
+ 1.1168 0 1 cbr 700 ------- 1 0.1 1.1 3 22
r 1.1184 0 1 cbr 700 ------- 1 0.1 1.1 1 19
- 1.1224 0 1 cbr 700 ------- 1 0.1 1.1 2 21
+ 1.1224 0 1 cbr 700 ------- 1 0.1 1.1 4 23
- 1.1252 0 1 cbr 700 ------- 1 0.1 1.1 3 22
- 1.128 0 1 cbr 700 ------- 1 0.1 1.1 4 23
+ 1.128 0 1 cbr 700 ------- 1 0.1 1.1 5 24
- 1.1308 0 1 cbr 700 ------- 1 0.1 1.1 5 24
r 1.1324 0 1 cbr 3500 ------- 0 0.0 1.0 18 20
+ 1.1336 0 1 cbr 700 ------- 1 0.1 1.1 6 25
- 1.1336 0 1 cbr 700 ------- 1 0.1 1.1 6 25
r 1.1352 0 1 cbr 700 ------- 1 0.1 1.1 2 21
r 1.138 0 1 cbr 700 ------- 1 0.1 1.1 3 22
+ 1.1392 0 1 cbr 700 ------- 1 0.1 1.1 7 26
- 1.1392 0 1 cbr 700 ------- 1 0.1 1.1 7 26
r 1.1408 0 1 cbr 700 ------- 1 0.1 1.1 4 23
r 1.1436 0 1 cbr 700 ------- 1 0.1 1.1 5 24
+ 1.1448 0 1 cbr 700 ------- 1 0.1 1.1 8 27
- 1.1448 0 1 cbr 700 ------- 1 0.1 1.1 8 27
r 1.1464 0 1 cbr 700 ------- 1 0.1 1.1 6 25
+ 1.1504 0 1 cbr 700 ------- 1 0.1 1.1 9 28
- 1.1504 0 1 cbr 700 ------- 1 0.1 1.1 9 28
r 1.152 0 1 cbr 700 ------- 1 0.1 1.1 7 26
+ 1.156 0 1 cbr 700 ------- 1 0.1 1.1 10 29
- 1.156 0 1 cbr 700 ------- 1 0.1 1.1 10 29
r 1.1576 0 1 cbr 700 ------- 1 0.1 1.1 8 27
+ 1.1616 0 1 cbr 700 ------- 1 0.1 1.1 11 30
- 1.1616 0 1 cbr 700 ------- 1 0.1 1.1 11 30
r 1.1632 0 1 cbr 700 ------- 1 0.1 1.1 9 28
+ 1.164 0 1 cbr 3500 ------- 0 0.0 1.0 19 31
- 1.1644 0 1 cbr 3500 ------- 0 0.0 1.0 19 31
+ 1.1672 0 1 cbr 700 ------- 1 0.1 1.1 12 32
r 1.1688 0 1 cbr 700 ------- 1 0.1 1.1 10 29
+ 1.1728 0 1 cbr 700 ------- 1 0.1 1.1 13 33
r 1.1744 0 1 cbr 700 ------- 1 0.1 1.1 11 30
- 1.1784 0 1 cbr 700 ------- 1 0.1 1.1 12 32
+ 1.1784 0 1 cbr 700 ------- 1 0.1 1.1 14 34
- 1.1812 0 1 cbr 700 ------- 1 0.1 1.1 13 33
- 1.184 0 1 cbr 700 ------- 1 0.1 1.1 14 34
+ 1.184 0 1 cbr 700 ------- 1 0.1 1.1 15 35
- 1.1868 0 1 cbr 700 ------- 1 0.1 1.1 15 35
r 1.1884 0 1 cbr 3500 ------- 0 0.0 1.0 19 31
+ 1.1896 0 1 cbr 700 ------- 1 0.1 1.1 16 36
- 1.1896 0 1 cbr 700 ------- 1 0.1 1.1 16 36
r 1.1912 0 1 cbr 700 ------- 1 0.1 1.1 12 32
r 1.194 0 1 cbr 700 ------- 1 0.1 1.1 13 33
+ 1.1952 0 1 cbr 700 ------- 1 0.1 1.1 17 37
- 1.1952 0 1 cbr 700 ------- 1 0.1 1.1 17 37
r 1.1968 0 1 cbr 700 ------- 1 0.1 1.1 14 34
r 1.1996 0 1 cbr 700 ------- 1 0.1 1.1 15 35
+ 1.2008 0 1 cbr 700 ------- 1 0.1 1.1 18 38
- 1.2008 0 1 cbr 700 ------- 1 0.1 1.1 18 38
r 1.2024 0 1 cbr 700 ------- 1 0.1 1.1 16 36
+ 1.2064 0 1 cbr 700 ------- 1 0.1 1.1 19 39
- 1.2064 0 1 cbr 700 ------- 1 0.1 1.1 19 39
r 1.208 0 1 cbr 700 ------- 1 0.1 1.1 17 37
+ 1.212 0 1 cbr 700 ------- 1 0.1 1.1 20 40
- 1.212 0 1 cbr 700 ------- 1 0.1 1.1 20 40
r 1.2136 0 1 cbr 700 ------- 1 0.1 1.1 18 38
+ 1.2176 0 1 cbr 700 ------- 1 0.1 1.1 21 41
- 1.2176 0 1 cbr 700 ------- 1 0.1 1.1 21 41
r 1.2192 0 1 cbr 700 ------- 1 0.1 1.1 19 39
+ 1.22 0 1 cbr 3500 ------- 0 0.0 1.0 20 42
- 1.2204 0 1 cbr 3500 ------- 0 0.0 1.0 20 42
+ 1.2232 0 1 cbr 700 ------- 1 0.1 1.1 22 43
r 1.2248 0 1 cbr 700 ------- 1 0.1 1.1 20 40
+ 1.2288 0 1 cbr 700 ------- 1 0.1 1.1 23 44
r 1.2304 0 1 cbr 700 ------- 1 0.1 1.1 21 41
- 1.2344 0 1 cbr 700 ------- 1 0.1 1.1 22 43
+ 1.2344 0 1 cbr 700 ------- 1 0.1 1.1 24 45
- 1.2372 0 1 cbr 700 ------- 1 0.1 1.1 23 44
- 1.24 0 1 cbr 700 ------- 1 0.1 1.1 24 45
+ 1.24 0 1 cbr 700 ------- 1 0.1 1.1 25 46
- 1.2428 0 1 cbr 700 ------- 1 0.1 1.1 25 46
r 1.2444 0 1 cbr 3500 ------- 0 0.0 1.0 20 42
+ 1.2456 0 1 cbr 700 ------- 1 0.1 1.1 26 47
- 1.2456 0 1 cbr 700 ------- 1 0.1 1.1 26 47
r 1.2472 0 1 cbr 700 ------- 1 0.1 1.1 22 43
r 1.25 0 1 cbr 700 ------- 1 0.1 1.1 23 44
+ 1.2512 0 1 cbr 700 ------- 1 0.1 1.1 27 48
- 1.2512 0 1 cbr 700 ------- 1 0.1 1.1 27 48
r 1.2528 0 1 cbr 700 ------- 1 0.1 1.1 24 45
r 1.2556 0 1 cbr 700 ------- 1 0.1 1.1 25 46
+ 1.2568 0 1 cbr 700 ------- 1 0.1 1.1 28 49
- 1.2568 0 1 cbr 700 ------- 1 0.1 1.1 28 49
r 1.2584 0 1 cbr 700 ------- 1 0.1 1.1 26 47
+ 1.2624 0 1 cbr 700 ------- 1 0.1 1.1 29 50
- 1.2624 0 1 cbr 700 ------- 1 0.1 1.1 29 50
r 1.264 0 1 cbr 700 ------- 1 0.1 1.1 27 48
+ 1.268 0 1 cbr 700 ------- 1 0.1 1.1 30 51
- 1.268 0 1 cbr 700 ------- 1 0.1 1.1 30 51
r 1.2696 0 1 cbr 700 ------- 1 0.1 1.1 28 49
+ 1.2736 0 1 cbr 700 ------- 1 0.1 1.1 31 52
- 1.2736 0 1 cbr 700 ------- 1 0.1 1.1 31 52
r 1.2752 0 1 cbr 700 ------- 1 0.1 1.1 29 50
+ 1.276 0 1 cbr 3500 ------- 0 0.0 1.0 21 53
- 1.2764 0 1 cbr 3500 ------- 0 0.0 1.0 21 53
+ 1.2792 0 1 cbr 700 ------- 1 0.1 1.1 32 54
r 1.2808 0 1 cbr 700 ------- 1 0.1 1.1 30 51
+ 1.2848 0 1 cbr 700 ------- 1 0.1 1.1 33 55
r 1.2864 0 1 cbr 700 ------- 1 0.1 1.1 31 52
- 1.2904 0 1 cbr 700 ------- 1 0.1 1.1 32 54
+ 1.2904 0 1 cbr 700 ------- 1 0.1 1.1 34 56
- 1.2932 0 1 cbr 700 ------- 1 0.1 1.1 33 55
- 1.296 0 1 cbr 700 ------- 1 0.1 1.1 34 56
+ 1.296 0 1 cbr 700 ------- 1 0.1 1.1 35 57
- 1.2988 0 1 cbr 700 ------- 1 0.1 1.1 35 57
r 1.3004 0 1 cbr 3500 ------- 0 0.0 1.0 21 53
+ 1.3016 0 1 cbr 700 ------- 1 0.1 1.1 36 58
- 1.3016 0 1 cbr 700 ------- 1 0.1 1.1 36 58
r 1.3032 0 1 cbr 700 ------- 1 0.1 1.1 32 54
r 1.306 0 1 cbr 700 ------- 1 0.1 1.1 33 55
+ 1.3072 0 1 cbr 700 ------- 1 0.1 1.1 37 59
- 1.3072 0 1 cbr 700 ------- 1 0.1 1.1 37 59
r 1.3088 0 1 cbr 700 ------- 1 0.1 1.1 34 56
r 1.3116 0 1 cbr 700 ------- 1 0.1 1.1 35 57
+ 1.3128 0 1 cbr 700 ------- 1 0.1 1.1 38 60
- 1.3128 0 1 cbr 700 ------- 1 0.1 1.1 38 60
r 1.3144 0 1 cbr 700 ------- 1 0.1 1.1 36 58
+ 1.3184 0 1 cbr 700 ------- 1 0.1 1.1 39 61
- 1.3184 0 1 cbr 700 ------- 1 0.1 1.1 39 61
r 1.32 0 1 cbr 700 ------- 1 0.1 1.1 37 59
+ 1.324 0 1 cbr 700 ------- 1 0.1 1.1 40 62
- 1.324 0 1 cbr 700 ------- 1 0.1 1.1 40 62
r 1.3256 0 1 cbr 700 ------- 1 0.1 1.1 38 60
+ 1.3296 0 1 cbr 700 ------- 1 0.1 1.1 41 63
- 1.3296 0 1 cbr 700 ------- 1 0.1 1.1 41 63
r 1.3312 0 1 cbr 700 ------- 1 0.1 1.1 39 61
+ 1.332 0 1 cbr 3500 ------- 0 0.0 1.0 22 64
- 1.3324 0 1 cbr 3500 ------- 0 0.0 1.0 22 64
+ 1.3352 0 1 cbr 700 ------- 1 0.1 1.1 42 65
r 1.3368 0 1 cbr 700 ------- 1 0.1 1.1 40 62
+ 1.3408 0 1 cbr 700 ------- 1 0.1 1.1 43 66
r 1.3424 0 1 cbr 700 ------- 1 0.1 1.1 41 63
- 1.3464 0 1 cbr 700 ------- 1 0.1 1.1 42 65
+ 1.3464 0 1 cbr 700 ------- 1 0.1 1.1 44 67
- 1.3492 0 1 cbr 700 ------- 1 0.1 1.1 43 66
- 1.352 0 1 cbr 700 ------- 1 0.1 1.1 44 67
+ 1.352 0 1 cbr 700 ------- 1 0.1 1.1 45 68
- 1.3548 0 1 cbr 700 ------- 1 0.1 1.1 45 68
r 1.3564 0 1 cbr 3500 ------- 0 0.0 1.0 22 64
+ 1.3576 0 1 cbr 700 ------- 1 0.1 1.1 46 69
- 1.3576 0 1 cbr 700 ------- 1 0.1 1.1 46 69
r 1.3592 0 1 cbr 700 ------- 1 0.1 1.1 42 65
r 1.362 0 1 cbr 700 ------- 1 0.1 1.1 43 66
+ 1.3632 0 1 cbr 700 ------- 1 0.1 1.1 47 70
- 1.3632 0 1 cbr 700 ------- 1 0.1 1.1 47 70
r 1.3648 0 1 cbr 700 ------- 1 0.1 1.1 44 67
r 1.3676 0 1 cbr 700 ------- 1 0.1 1.1 45 68
+ 1.3688 0 1 cbr 700 ------- 1 0.1 1.1 48 71
- 1.3688 0 1 cbr 700 ------- 1 0.1 1.1 48 71
r 1.3704 0 1 cbr 700 ------- 1 0.1 1.1 46 69
+ 1.3744 0 1 cbr 700 ------- 1 0.1 1.1 49 72
- 1.3744 0 1 cbr 700 ------- 1 0.1 1.1 49 72
r 1.376 0 1 cbr 700 ------- 1 0.1 1.1 47 70
+ 1.38 0 1 cbr 700 ------- 1 0.1 1.1 50 73
- 1.38 0 1 cbr 700 ------- 1 0.1 1.1 50 73
r 1.3816 0 1 cbr 700 ------- 1 0.1 1.1 48 71
+ 1.3856 0 1 cbr 700 ------- 1 0.1 1.1 51 74
- 1.3856 0 1 cbr 700 ------- 1 0.1 1.1 51 74
r 1.3872 0 1 cbr 700 ------- 1 0.1 1.1 49 72
+ 1.388 0 1 cbr 3500 ------- 0 0.0 1.0 23 75
- 1.3884 0 1 cbr 3500 ------- 0 0.0 1.0 23 75
+ 1.3912 0 1 cbr 700 ------- 1 0.1 1.1 52 76
r 1.3928 0 1 cbr 700 ------- 1 0.1 1.1 50 73
+ 1.3968 0 1 cbr 700 ------- 1 0.1 1.1 53 77
r 1.3984 0 1 cbr 700 ------- 1 0.1 1.1 51 74
- 1.4024 0 1 cbr 700 ------- 1 0.1 1.1 52 76
+ 1.4024 0 1 cbr 700 ------- 1 0.1 1.1 54 78
- 1.4052 0 1 cbr 700 ------- 1 0.1 1.1 53 77
- 1.408 0 1 cbr 700 ------- 1 0.1 1.1 54 78
+ 1.408 0 1 cbr 700 ------- 1 0.1 1.1 55 79
- 1.4108 0 1 cbr 700 ------- 1 0.1 1.1 55 79
r 1.4124 0 1 cbr 3500 ------- 0 0.0 1.0 23 75
+ 1.4136 0 1 cbr 700 ------- 1 0.1 1.1 56 80
- 1.4136 0 1 cbr 700 ------- 1 0.1 1.1 56 80
r 1.4152 0 1 cbr 700 ------- 1 0.1 1.1 52 76
r 1.418 0 1 cbr 700 ------- 1 0.1 1.1 53 77
+ 1.4192 0 1 cbr 700 ------- 1 0.1 1.1 57 81
- 1.4192 0 1 cbr 700 ------- 1 0.1 1.1 57 81
r 1.4208 0 1 cbr 700 ------- 1 0.1 1.1 54 78
r 1.4236 0 1 cbr 700 ------- 1 0.1 1.1 55 79
+ 1.4248 0 1 cbr 700 ------- 1 0.1 1.1 58 82
- 1.4248 0 1 cbr 700 ------- 1 0.1 1.1 58 82
r 1.4264 0 1 cbr 700 ------- 1 0.1 1.1 56 80
+ 1.4304 0 1 cbr 700 ------- 1 0.1 1.1 59 83
- 1.4304 0 1 cbr 700 ------- 1 0.1 1.1 59 83
r 1.432 0 1 cbr 700 ------- 1 0.1 1.1 57 81
+ 1.436 0 1 cbr 700 ------- 1 0.1 1.1 60 84
- 1.436 0 1 cbr 700 ------- 1 0.1 1.1 60 84
r 1.4376 0 1 cbr 700 ------- 1 0.1 1.1 58 82
+ 1.4416 0 1 cbr 700 ------- 1 0.1 1.1 61 85
- 1.4416 0 1 cbr 700 ------- 1 0.1 1.1 61 85
r 1.4432 0 1 cbr 700 ------- 1 0.1 1.1 59 83
+ 1.444 0 1 cbr 3500 ------- 0 0.0 1.0 24 86
- 1.4444 0 1 cbr 3500 ------- 0 0.0 1.0 24 86
+ 1.4472 0 1 cbr 700 ------- 1 0.1 1.1 62 87
r 1.4488 0 1 cbr 700 ------- 1 0.1 1.1 60 84
+ 1.4528 0 1 cbr 700 ------- 1 0.1 1.1 63 88
r 1.4544 0 1 cbr 700 ------- 1 0.1 1.1 61 85
- 1.4584 0 1 cbr 700 ------- 1 0.1 1.1 62 87
+ 1.4584 0 1 cbr 700 ------- 1 0.1 1.1 64 89
- 1.4612 0 1 cbr 700 ------- 1 0.1 1.1 63 88
- 1.464 0 1 cbr 700 ------- 1 0.1 1.1 64 89
+ 1.464 0 1 cbr 700 ------- 1 0.1 1.1 65 90
- 1.4668 0 1 cbr 700 ------- 1 0.1 1.1 65 90
r 1.4684 0 1 cbr 3500 ------- 0 0.0 1.0 24 86
+ 1.4696 0 1 cbr 700 ------- 1 0.1 1.1 66 91
- 1.4696 0 1 cbr 700 ------- 1 0.1 1.1 66 91
r 1.4712 0 1 cbr 700 ------- 1 0.1 1.1 62 87
r 1.474 0 1 cbr 700 ------- 1 0.1 1.1 63 88
+ 1.4752 0 1 cbr 700 ------- 1 0.1 1.1 67 92
- 1.4752 0 1 cbr 700 ------- 1 0.1 1.1 67 92
r 1.4768 0 1 cbr 700 ------- 1 0.1 1.1 64 89
r 1.4796 0 1 cbr 700 ------- 1 0.1 1.1 65 90
+ 1.4808 0 1 cbr 700 ------- 1 0.1 1.1 68 93
- 1.4808 0 1 cbr 700 ------- 1 0.1 1.1 68 93
r 1.4824 0 1 cbr 700 ------- 1 0.1 1.1 66 91
+ 1.4864 0 1 cbr 700 ------- 1 0.1 1.1 69 94
- 1.4864 0 1 cbr 700 ------- 1 0.1 1.1 69 94
r 1.488 0 1 cbr 700 ------- 1 0.1 1.1 67 92
+ 1.492 0 1 cbr 700 ------- 1 0.1 1.1 70 95
- 1.492 0 1 cbr 700 ------- 1 0.1 1.1 70 95
r 1.4936 0 1 cbr 700 ------- 1 0.1 1.1 68 93
+ 1.4976 0 1 cbr 700 ------- 1 0.1 1.1 71 96
- 1.4976 0 1 cbr 700 ------- 1 0.1 1.1 71 96
r 1.4992 0 1 cbr 700 ------- 1 0.1 1.1 69 94
+ 1.5 0 1 cbr 3500 ------- 0 0.0 1.0 25 97
- 1.5004 0 1 cbr 3500 ------- 0 0.0 1.0 25 97
+ 1.5032 0 1 cbr 700 ------- 1 0.1 1.1 72 98
r 1.5048 0 1 cbr 700 ------- 1 0.1 1.1 70 95
+ 1.5088 0 1 cbr 700 ------- 1 0.1 1.1 73 99
r 1.5104 0 1 cbr 700 ------- 1 0.1 1.1 71 96
- 1.5144 0 1 cbr 700 ------- 1 0.1 1.1 72 98
+ 1.5144 0 1 cbr 700 ------- 1 0.1 1.1 74 100
- 1.5172 0 1 cbr 700 ------- 1 0.1 1.1 73 99
- 1.52 0 1 cbr 700 ------- 1 0.1 1.1 74 100
+ 1.52 0 1 cbr 700 ------- 1 0.1 1.1 75 101
- 1.5228 0 1 cbr 700 ------- 1 0.1 1.1 75 101
r 1.5244 0 1 cbr 3500 ------- 0 0.0 1.0 25 97
+ 1.5256 0 1 cbr 700 ------- 1 0.1 1.1 76 102
- 1.5256 0 1 cbr 700 ------- 1 0.1 1.1 76 102
r 1.5272 0 1 cbr 700 ------- 1 0.1 1.1 72 98
r 1.53 0 1 cbr 700 ------- 1 0.1 1.1 73 99
+ 1.5312 0 1 cbr 700 ------- 1 0.1 1.1 77 103
- 1.5312 0 1 cbr 700 ------- 1 0.1 1.1 77 103
r 1.5328 0 1 cbr 700 ------- 1 0.1 1.1 74 100
r 1.5356 0 1 cbr 700 ------- 1 0.1 1.1 75 101
+ 1.5368 0 1 cbr 700 ------- 1 0.1 1.1 78 104
- 1.5368 0 1 cbr 700 ------- 1 0.1 1.1 78 104
r 1.5384 0 1 cbr 700 ------- 1 0.1 1.1 76 102
+ 1.5424 0 1 cbr 700 ------- 1 0.1 1.1 79 105
- 1.5424 0 1 cbr 700 ------- 1 0.1 1.1 79 105
r 1.544 0 1 cbr 700 ------- 1 0.1 1.1 77 103
+ 1.548 0 1 cbr 700 ------- 1 0.1 1.1 80 106
- 1.548 0 1 cbr 700 ------- 1 0.1 1.1 80 106
r 1.5496 0 1 cbr 700 ------- 1 0.1 1.1 78 104
+ 1.5536 0 1 cbr 700 ------- 1 0.1 1.1 81 107
- 1.5536 0 1 cbr 700 ------- 1 0.1 1.1 81 107
r 1.5552 0 1 cbr 700 ------- 1 0.1 1.1 79 105
+ 1.556 0 1 cbr 3500 ------- 0 0.0 1.0 26 108
- 1.5564 0 1 cbr 3500 ------- 0 0.0 1.0 26 108
+ 1.5592 0 1 cbr 700 ------- 1 0.1 1.1 82 109
r 1.5608 0 1 cbr 700 ------- 1 0.1 1.1 80 106
+ 1.5648 0 1 cbr 700 ------- 1 0.1 1.1 83 110
r 1.5664 0 1 cbr 700 ------- 1 0.1 1.1 81 107
- 1.5704 0 1 cbr 700 ------- 1 0.1 1.1 82 109
+ 1.5704 0 1 cbr 700 ------- 1 0.1 1.1 84 111
- 1.5732 0 1 cbr 700 ------- 1 0.1 1.1 83 110
- 1.576 0 1 cbr 700 ------- 1 0.1 1.1 84 111
+ 1.576 0 1 cbr 700 ------- 1 0.1 1.1 85 112
- 1.5788 0 1 cbr 700 ------- 1 0.1 1.1 85 112
r 1.5804 0 1 cbr 3500 ------- 0 0.0 1.0 26 108
+ 1.5816 0 1 cbr 700 ------- 1 0.1 1.1 86 113
- 1.5816 0 1 cbr 700 ------- 1 0.1 1.1 86 113
r 1.5832 0 1 cbr 700 ------- 1 0.1 1.1 82 109
r 1.586 0 1 cbr 700 ------- 1 0.1 1.1 83 110
+ 1.5872 0 1 cbr 700 ------- 1 0.1 1.1 87 114
- 1.5872 0 1 cbr 700 ------- 1 0.1 1.1 87 114
r 1.5888 0 1 cbr 700 ------- 1 0.1 1.1 84 111
r 1.5916 0 1 cbr 700 ------- 1 0.1 1.1 85 112
+ 1.5928 0 1 cbr 700 ------- 1 0.1 1.1 88 115
- 1.5928 0 1 cbr 700 ------- 1 0.1 1.1 88 115
r 1.5944 0 1 cbr 700 ------- 1 0.1 1.1 86 113
+ 1.5984 0 1 cbr 700 ------- 1 0.1 1.1 89 116
- 1.5984 0 1 cbr 700 ------- 1 0.1 1.1 89 116
r 1.6 0 1 cbr 700 ------- 1 0.1 1.1 87 114
+ 1.604 0 1 cbr 700 ------- 1 0.1 1.1 90 117
- 1.604 0 1 cbr 700 ------- 1 0.1 1.1 90 117
r 1.6056 0 1 cbr 700 ------- 1 0.1 1.1 88 115
+ 1.6096 0 1 cbr 700 ------- 1 0.1 1.1 91 118
- 1.6096 0 1 cbr 700 ------- 1 0.1 1.1 91 118
r 1.6112 0 1 cbr 700 ------- 1 0.1 1.1 89 116
+ 1.612 0 1 cbr 3500 ------- 0 0.0 1.0 27 119
- 1.6124 0 1 cbr 3500 ------- 0 0.0 1.0 27 119
+ 1.6152 0 1 cbr 700 ------- 1 0.1 1.1 92 120
r 1.6168 0 1 cbr 700 ------- 1 0.1 1.1 90 117
+ 1.6208 0 1 cbr 700 ------- 1 0.1 1.1 93 121
r 1.6224 0 1 cbr 700 ------- 1 0.1 1.1 91 118
- 1.6264 0 1 cbr 700 ------- 1 0.1 1.1 92 120
+ 1.6264 0 1 cbr 700 ------- 1 0.1 1.1 94 122
- 1.6292 0 1 cbr 700 ------- 1 0.1 1.1 93 121
- 1.632 0 1 cbr 700 ------- 1 0.1 1.1 94 122
+ 1.632 0 1 cbr 700 ------- 1 0.1 1.1 95 123
- 1.6348 0 1 cbr 700 ------- 1 0.1 1.1 95 123
r 1.6364 0 1 cbr 3500 ------- 0 0.0 1.0 27 119
+ 1.6376 0 1 cbr 700 ------- 1 0.1 1.1 96 124
- 1.6376 0 1 cbr 700 ------- 1 0.1 1.1 96 124
r 1.6392 0 1 cbr 700 ------- 1 0.1 1.1 92 120
r 1.642 0 1 cbr 700 ------- 1 0.1 1.1 93 121
+ 1.6432 0 1 cbr 700 ------- 1 0.1 1.1 97 125
- 1.6432 0 1 cbr 700 ------- 1 0.1 1.1 97 125
r 1.6448 0 1 cbr 700 ------- 1 0.1 1.1 94 122
r 1.6476 0 1 cbr 700 ------- 1 0.1 1.1 95 123
+ 1.6488 0 1 cbr 700 ------- 1 0.1 1.1 98 126
- 1.6488 0 1 cbr 700 ------- 1 0.1 1.1 98 126
r 1.6504 0 1 cbr 700 ------- 1 0.1 1.1 96 124
+ 1.6544 0 1 cbr 700 ------- 1 0.1 1.1 99 127
- 1.6544 0 1 cbr 700 ------- 1 0.1 1.1 99 127
r 1.656 0 1 cbr 700 ------- 1 0.1 1.1 97 125
+ 1.66 0 1 cbr 700 ------- 1 0.1 1.1 100 128
- 1.66 0 1 cbr 700 ------- 1 0.1 1.1 100 128
r 1.6616 0 1 cbr 700 ------- 1 0.1 1.1 98 126
+ 1.6656 0 1 cbr 700 ------- 1 0.1 1.1 101 129
- 1.6656 0 1 cbr 700 ------- 1 0.1 1.1 101 129
r 1.6672 0 1 cbr 700 ------- 1 0.1 1.1 99 127
+ 1.668 0 1 cbr 3500 ------- 0 0.0 1.0 28 130
- 1.6684 0 1 cbr 3500 ------- 0 0.0 1.0 28 130
+ 1.6712 0 1 cbr 700 ------- 1 0.1 1.1 102 131
r 1.6728 0 1 cbr 700 ------- 1 0.1 1.1 100 128
+ 1.6768 0 1 cbr 700 ------- 1 0.1 1.1 103 132
r 1.6784 0 1 cbr 700 ------- 1 0.1 1.1 101 129
- 1.6824 0 1 cbr 700 ------- 1 0.1 1.1 102 131
+ 1.6824 0 1 cbr 700 ------- 1 0.1 1.1 104 133
- 1.6852 0 1 cbr 700 ------- 1 0.1 1.1 103 132
- 1.688 0 1 cbr 700 ------- 1 0.1 1.1 104 133
+ 1.688 0 1 cbr 700 ------- 1 0.1 1.1 105 134
- 1.6908 0 1 cbr 700 ------- 1 0.1 1.1 105 134
r 1.6924 0 1 cbr 3500 ------- 0 0.0 1.0 28 130
+ 1.6936 0 1 cbr 700 ------- 1 0.1 1.1 106 135
- 1.6936 0 1 cbr 700 ------- 1 0.1 1.1 106 135
r 1.6952 0 1 cbr 700 ------- 1 0.1 1.1 102 131
r 1.698 0 1 cbr 700 ------- 1 0.1 1.1 103 132
+ 1.6992 0 1 cbr 700 ------- 1 0.1 1.1 107 136
- 1.6992 0 1 cbr 700 ------- 1 0.1 1.1 107 136
r 1.7008 0 1 cbr 700 ------- 1 0.1 1.1 104 133
r 1.7036 0 1 cbr 700 ------- 1 0.1 1.1 105 134
+ 1.7048 0 1 cbr 700 ------- 1 0.1 1.1 108 137
- 1.7048 0 1 cbr 700 ------- 1 0.1 1.1 108 137
r 1.7064 0 1 cbr 700 ------- 1 0.1 1.1 106 135
+ 1.7104 0 1 cbr 700 ------- 1 0.1 1.1 109 138
- 1.7104 0 1 cbr 700 ------- 1 0.1 1.1 109 138
r 1.712 0 1 cbr 700 ------- 1 0.1 1.1 107 136
+ 1.716 0 1 cbr 700 ------- 1 0.1 1.1 110 139
- 1.716 0 1 cbr 700 ------- 1 0.1 1.1 110 139
r 1.7176 0 1 cbr 700 ------- 1 0.1 1.1 108 137
+ 1.7216 0 1 cbr 700 ------- 1 0.1 1.1 111 140
- 1.7216 0 1 cbr 700 ------- 1 0.1 1.1 111 140
r 1.7232 0 1 cbr 700 ------- 1 0.1 1.1 109 138
+ 1.724 0 1 cbr 3500 ------- 0 0.0 1.0 29 141
- 1.7244 0 1 cbr 3500 ------- 0 0.0 1.0 29 141
+ 1.7272 0 1 cbr 700 ------- 1 0.1 1.1 112 142
r 1.7288 0 1 cbr 700 ------- 1 0.1 1.1 110 139
+ 1.7328 0 1 cbr 700 ------- 1 0.1 1.1 113 143
r 1.7344 0 1 cbr 700 ------- 1 0.1 1.1 111 140
- 1.7384 0 1 cbr 700 ------- 1 0.1 1.1 112 142
+ 1.7384 0 1 cbr 700 ------- 1 0.1 1.1 114 144
- 1.7412 0 1 cbr 700 ------- 1 0.1 1.1 113 143
- 1.744 0 1 cbr 700 ------- 1 0.1 1.1 114 144
+ 1.744 0 1 cbr 700 ------- 1 0.1 1.1 115 145
- 1.7468 0 1 cbr 700 ------- 1 0.1 1.1 115 145
r 1.7484 0 1 cbr 3500 ------- 0 0.0 1.0 29 141
+ 1.7496 0 1 cbr 700 ------- 1 0.1 1.1 116 146
- 1.7496 0 1 cbr 700 ------- 1 0.1 1.1 116 146
r 1.7512 0 1 cbr 700 ------- 1 0.1 1.1 112 142
r 1.754 0 1 cbr 700 ------- 1 0.1 1.1 113 143
+ 1.7552 0 1 cbr 700 ------- 1 0.1 1.1 117 147
- 1.7552 0 1 cbr 700 ------- 1 0.1 1.1 117 147
r 1.7568 0 1 cbr 700 ------- 1 0.1 1.1 114 144
r 1.7596 0 1 cbr 700 ------- 1 0.1 1.1 115 145
+ 1.7608 0 1 cbr 700 ------- 1 0.1 1.1 118 148
- 1.7608 0 1 cbr 700 ------- 1 0.1 1.1 118 148
r 1.7624 0 1 cbr 700 ------- 1 0.1 1.1 116 146
+ 1.7664 0 1 cbr 700 ------- 1 0.1 1.1 119 149
- 1.7664 0 1 cbr 700 ------- 1 0.1 1.1 119 149
r 1.768 0 1 cbr 700 ------- 1 0.1 1.1 117 147
+ 1.772 0 1 cbr 700 ------- 1 0.1 1.1 120 150
- 1.772 0 1 cbr 700 ------- 1 0.1 1.1 120 150
r 1.7736 0 1 cbr 700 ------- 1 0.1 1.1 118 148
+ 1.7776 0 1 cbr 700 ------- 1 0.1 1.1 121 151
- 1.7776 0 1 cbr 700 ------- 1 0.1 1.1 121 151
r 1.7792 0 1 cbr 700 ------- 1 0.1 1.1 119 149
+ 1.78 0 1 cbr 3500 ------- 0 0.0 1.0 30 152
- 1.7804 0 1 cbr 3500 ------- 0 0.0 1.0 30 152
+ 1.7832 0 1 cbr 700 ------- 1 0.1 1.1 122 153
r 1.7848 0 1 cbr 700 ------- 1 0.1 1.1 120 150
+ 1.7888 0 1 cbr 700 ------- 1 0.1 1.1 123 154
r 1.7904 0 1 cbr 700 ------- 1 0.1 1.1 121 151
- 1.7944 0 1 cbr 700 ------- 1 0.1 1.1 122 153
+ 1.7944 0 1 cbr 700 ------- 1 0.1 1.1 124 155
- 1.7972 0 1 cbr 700 ------- 1 0.1 1.1 123 154
- 1.8 0 1 cbr 700 ------- 1 0.1 1.1 124 155
+ 1.8 0 1 cbr 700 ------- 1 0.1 1.1 125 156
- 1.8028 0 1 cbr 700 ------- 1 0.1 1.1 125 156
r 1.8044 0 1 cbr 3500 ------- 0 0.0 1.0 30 152
+ 1.8056 0 1 cbr 700 ------- 1 0.1 1.1 126 157
- 1.8056 0 1 cbr 700 ------- 1 0.1 1.1 126 157
r 1.8072 0 1 cbr 700 ------- 1 0.1 1.1 122 153
r 1.81 0 1 cbr 700 ------- 1 0.1 1.1 123 154
+ 1.8112 0 1 cbr 700 ------- 1 0.1 1.1 127 158
- 1.8112 0 1 cbr 700 ------- 1 0.1 1.1 127 158
r 1.8128 0 1 cbr 700 ------- 1 0.1 1.1 124 155
r 1.8156 0 1 cbr 700 ------- 1 0.1 1.1 125 156
+ 1.8168 0 1 cbr 700 ------- 1 0.1 1.1 128 159
- 1.8168 0 1 cbr 700 ------- 1 0.1 1.1 128 159
r 1.8184 0 1 cbr 700 ------- 1 0.1 1.1 126 157
+ 1.8224 0 1 cbr 700 ------- 1 0.1 1.1 129 160
- 1.8224 0 1 cbr 700 ------- 1 0.1 1.1 129 160
r 1.824 0 1 cbr 700 ------- 1 0.1 1.1 127 158
+ 1.828 0 1 cbr 700 ------- 1 0.1 1.1 130 161
- 1.828 0 1 cbr 700 ------- 1 0.1 1.1 130 161
r 1.8296 0 1 cbr 700 ------- 1 0.1 1.1 128 159
+ 1.8336 0 1 cbr 700 ------- 1 0.1 1.1 131 162
- 1.8336 0 1 cbr 700 ------- 1 0.1 1.1 131 162
r 1.8352 0 1 cbr 700 ------- 1 0.1 1.1 129 160
+ 1.836 0 1 cbr 3500 ------- 0 0.0 1.0 31 163
- 1.8364 0 1 cbr 3500 ------- 0 0.0 1.0 31 163
+ 1.8392 0 1 cbr 700 ------- 1 0.1 1.1 132 164
r 1.8408 0 1 cbr 700 ------- 1 0.1 1.1 130 161
+ 1.8448 0 1 cbr 700 ------- 1 0.1 1.1 133 165
r 1.8464 0 1 cbr 700 ------- 1 0.1 1.1 131 162
- 1.8504 0 1 cbr 700 ------- 1 0.1 1.1 132 164
+ 1.8504 0 1 cbr 700 ------- 1 0.1 1.1 134 166
- 1.8532 0 1 cbr 700 ------- 1 0.1 1.1 133 165
- 1.856 0 1 cbr 700 ------- 1 0.1 1.1 134 166
+ 1.856 0 1 cbr 700 ------- 1 0.1 1.1 135 167
- 1.8588 0 1 cbr 700 ------- 1 0.1 1.1 135 167
r 1.8604 0 1 cbr 3500 ------- 0 0.0 1.0 31 163
+ 1.8616 0 1 cbr 700 ------- 1 0.1 1.1 136 168
- 1.8616 0 1 cbr 700 ------- 1 0.1 1.1 136 168
r 1.8632 0 1 cbr 700 ------- 1 0.1 1.1 132 164
r 1.866 0 1 cbr 700 ------- 1 0.1 1.1 133 165
+ 1.8672 0 1 cbr 700 ------- 1 0.1 1.1 137 169
- 1.8672 0 1 cbr 700 ------- 1 0.1 1.1 137 169
r 1.8688 0 1 cbr 700 ------- 1 0.1 1.1 134 166
r 1.8716 0 1 cbr 700 ------- 1 0.1 1.1 135 167
+ 1.8728 0 1 cbr 700 ------- 1 0.1 1.1 138 170
- 1.8728 0 1 cbr 700 ------- 1 0.1 1.1 138 170
r 1.8744 0 1 cbr 700 ------- 1 0.1 1.1 136 168
+ 1.8784 0 1 cbr 700 ------- 1 0.1 1.1 139 171
- 1.8784 0 1 cbr 700 ------- 1 0.1 1.1 139 171
r 1.88 0 1 cbr 700 ------- 1 0.1 1.1 137 169
+ 1.884 0 1 cbr 700 ------- 1 0.1 1.1 140 172
- 1.884 0 1 cbr 700 ------- 1 0.1 1.1 140 172
r 1.8856 0 1 cbr 700 ------- 1 0.1 1.1 138 170
+ 1.8896 0 1 cbr 700 ------- 1 0.1 1.1 141 173
- 1.8896 0 1 cbr 700 ------- 1 0.1 1.1 141 173
r 1.8912 0 1 cbr 700 ------- 1 0.1 1.1 139 171
+ 1.892 0 1 cbr 3500 ------- 0 0.0 1.0 32 174
- 1.8924 0 1 cbr 3500 ------- 0 0.0 1.0 32 174
+ 1.8952 0 1 cbr 700 ------- 1 0.1 1.1 142 175
r 1.8968 0 1 cbr 700 ------- 1 0.1 1.1 140 172
+ 1.9008 0 1 cbr 700 ------- 1 0.1 1.1 143 176
r 1.9024 0 1 cbr 700 ------- 1 0.1 1.1 141 173
- 1.9064 0 1 cbr 700 ------- 1 0.1 1.1 142 175
+ 1.9064 0 1 cbr 700 ------- 1 0.1 1.1 144 177
- 1.9092 0 1 cbr 700 ------- 1 0.1 1.1 143 176
- 1.912 0 1 cbr 700 ------- 1 0.1 1.1 144 177
+ 1.912 0 1 cbr 700 ------- 1 0.1 1.1 145 178
- 1.9148 0 1 cbr 700 ------- 1 0.1 1.1 145 178
r 1.9164 0 1 cbr 3500 ------- 0 0.0 1.0 32 174
+ 1.9176 0 1 cbr 700 ------- 1 0.1 1.1 146 179
- 1.9176 0 1 cbr 700 ------- 1 0.1 1.1 146 179
r 1.9192 0 1 cbr 700 ------- 1 0.1 1.1 142 175
r 1.922 0 1 cbr 700 ------- 1 0.1 1.1 143 176
+ 1.9232 0 1 cbr 700 ------- 1 0.1 1.1 147 180
- 1.9232 0 1 cbr 700 ------- 1 0.1 1.1 147 180
r 1.9248 0 1 cbr 700 ------- 1 0.1 1.1 144 177
r 1.9276 0 1 cbr 700 ------- 1 0.1 1.1 145 178
+ 1.9288 0 1 cbr 700 ------- 1 0.1 1.1 148 181
- 1.9288 0 1 cbr 700 ------- 1 0.1 1.1 148 181
r 1.9304 0 1 cbr 700 ------- 1 0.1 1.1 146 179
+ 1.9344 0 1 cbr 700 ------- 1 0.1 1.1 149 182
- 1.9344 0 1 cbr 700 ------- 1 0.1 1.1 149 182
r 1.936 0 1 cbr 700 ------- 1 0.1 1.1 147 180
+ 1.94 0 1 cbr 700 ------- 1 0.1 1.1 150 183
- 1.94 0 1 cbr 700 ------- 1 0.1 1.1 150 183
r 1.9416 0 1 cbr 700 ------- 1 0.1 1.1 148 181
+ 1.9456 0 1 cbr 700 ------- 1 0.1 1.1 151 184
- 1.9456 0 1 cbr 700 ------- 1 0.1 1.1 151 184
r 1.9472 0 1 cbr 700 ------- 1 0.1 1.1 149 182
+ 1.948 0 1 cbr 3500 ------- 0 0.0 1.0 33 185
- 1.9484 0 1 cbr 3500 ------- 0 0.0 1.0 33 185
+ 1.9512 0 1 cbr 700 ------- 1 0.1 1.1 152 186
r 1.9528 0 1 cbr 700 ------- 1 0.1 1.1 150 183
+ 1.9568 0 1 cbr 700 ------- 1 0.1 1.1 153 187
r 1.9584 0 1 cbr 700 ------- 1 0.1 1.1 151 184
- 1.9624 0 1 cbr 700 ------- 1 0.1 1.1 152 186
+ 1.9624 0 1 cbr 700 ------- 1 0.1 1.1 154 188
- 1.9652 0 1 cbr 700 ------- 1 0.1 1.1 153 187
- 1.968 0 1 cbr 700 ------- 1 0.1 1.1 154 188
+ 1.968 0 1 cbr 700 ------- 1 0.1 1.1 155 189
- 1.9708 0 1 cbr 700 ------- 1 0.1 1.1 155 189
r 1.9724 0 1 cbr 3500 ------- 0 0.0 1.0 33 185
+ 1.9736 0 1 cbr 700 ------- 1 0.1 1.1 156 190
- 1.9736 0 1 cbr 700 ------- 1 0.1 1.1 156 190
r 1.9752 0 1 cbr 700 ------- 1 0.1 1.1 152 186
r 1.978 0 1 cbr 700 ------- 1 0.1 1.1 153 187
+ 1.9792 0 1 cbr 700 ------- 1 0.1 1.1 157 191
- 1.9792 0 1 cbr 700 ------- 1 0.1 1.1 157 191
r 1.9808 0 1 cbr 700 ------- 1 0.1 1.1 154 188
r 1.9836 0 1 cbr 700 ------- 1 0.1 1.1 155 189
+ 1.9848 0 1 cbr 700 ------- 1 0.1 1.1 158 192
- 1.9848 0 1 cbr 700 ------- 1 0.1 1.1 158 192
r 1.9864 0 1 cbr 700 ------- 1 0.1 1.1 156 190
+ 1.9904 0 1 cbr 700 ------- 1 0.1 1.1 159 193
- 1.9904 0 1 cbr 700 ------- 1 0.1 1.1 159 193
r 1.992 0 1 cbr 700 ------- 1 0.1 1.1 157 191
+ 1.996 0 1 cbr 700 ------- 1 0.1 1.1 160 194
- 1.996 0 1 cbr 700 ------- 1 0.1 1.1 160 194
r 1.9976 0 1 cbr 700 ------- 1 0.1 1.1 158 192
+ 2.0016 0 1 cbr 700 ------- 1 0.1 1.1 161 195
- 2.0016 0 1 cbr 700 ------- 1 0.1 1.1 161 195
r 2.0032 0 1 cbr 700 ------- 1 0.1 1.1 159 193
+ 2.0072 0 1 cbr 700 ------- 1 0.1 1.1 162 196
- 2.0072 0 1 cbr 700 ------- 1 0.1 1.1 162 196
r 2.0088 0 1 cbr 700 ------- 1 0.1 1.1 160 194
+ 2.0128 0 1 cbr 700 ------- 1 0.1 1.1 163 197
- 2.0128 0 1 cbr 700 ------- 1 0.1 1.1 163 197
r 2.0144 0 1 cbr 700 ------- 1 0.1 1.1 161 195
+ 2.0184 0 1 cbr 700 ------- 1 0.1 1.1 164 198
- 2.0184 0 1 cbr 700 ------- 1 0.1 1.1 164 198
r 2.02 0 1 cbr 700 ------- 1 0.1 1.1 162 196
+ 2.024 0 1 cbr 700 ------- 1 0.1 1.1 165 199
- 2.024 0 1 cbr 700 ------- 1 0.1 1.1 165 199
r 2.0256 0 1 cbr 700 ------- 1 0.1 1.1 163 197
+ 2.0296 0 1 cbr 700 ------- 1 0.1 1.1 166 200
- 2.0296 0 1 cbr 700 ------- 1 0.1 1.1 166 200
r 2.0312 0 1 cbr 700 ------- 1 0.1 1.1 164 198
+ 2.0352 0 1 cbr 700 ------- 1 0.1 1.1 167 201
- 2.0352 0 1 cbr 700 ------- 1 0.1 1.1 167 201
r 2.0368 0 1 cbr 700 ------- 1 0.1 1.1 165 199
+ 2.0408 0 1 cbr 700 ------- 1 0.1 1.1 168 202
- 2.0408 0 1 cbr 700 ------- 1 0.1 1.1 168 202
r 2.0424 0 1 cbr 700 ------- 1 0.1 1.1 166 200
+ 2.0464 0 1 cbr 700 ------- 1 0.1 1.1 169 203
- 2.0464 0 1 cbr 700 ------- 1 0.1 1.1 169 203
r 2.048 0 1 cbr 700 ------- 1 0.1 1.1 167 201
+ 2.052 0 1 cbr 700 ------- 1 0.1 1.1 170 204
- 2.052 0 1 cbr 700 ------- 1 0.1 1.1 170 204
r 2.0536 0 1 cbr 700 ------- 1 0.1 1.1 168 202
+ 2.0576 0 1 cbr 700 ------- 1 0.1 1.1 171 205
- 2.0576 0 1 cbr 700 ------- 1 0.1 1.1 171 205
r 2.0592 0 1 cbr 700 ------- 1 0.1 1.1 169 203
+ 2.0632 0 1 cbr 700 ------- 1 0.1 1.1 172 206
- 2.0632 0 1 cbr 700 ------- 1 0.1 1.1 172 206
r 2.0648 0 1 cbr 700 ------- 1 0.1 1.1 170 204
+ 2.0688 0 1 cbr 700 ------- 1 0.1 1.1 173 207
- 2.0688 0 1 cbr 700 ------- 1 0.1 1.1 173 207
r 2.0704 0 1 cbr 700 ------- 1 0.1 1.1 171 205
+ 2.0744 0 1 cbr 700 ------- 1 0.1 1.1 174 208
- 2.0744 0 1 cbr 700 ------- 1 0.1 1.1 174 208
r 2.076 0 1 cbr 700 ------- 1 0.1 1.1 172 206
+ 2.08 0 1 cbr 700 ------- 1 0.1 1.1 175 209
- 2.08 0 1 cbr 700 ------- 1 0.1 1.1 175 209
r 2.0816 0 1 cbr 700 ------- 1 0.1 1.1 173 207
+ 2.0856 0 1 cbr 700 ------- 1 0.1 1.1 176 210
- 2.0856 0 1 cbr 700 ------- 1 0.1 1.1 176 210
r 2.0872 0 1 cbr 700 ------- 1 0.1 1.1 174 208
+ 2.0912 0 1 cbr 700 ------- 1 0.1 1.1 177 211
- 2.0912 0 1 cbr 700 ------- 1 0.1 1.1 177 211
r 2.0928 0 1 cbr 700 ------- 1 0.1 1.1 175 209
+ 2.0968 0 1 cbr 700 ------- 1 0.1 1.1 178 212
- 2.0968 0 1 cbr 700 ------- 1 0.1 1.1 178 212
r 2.0984 0 1 cbr 700 ------- 1 0.1 1.1 176 210
+ 2.1 0 1 cbr 500 ------- 2 0.2 1.2 0 213
- 2.1 0 1 cbr 500 ------- 2 0.2 1.2 0 213
+ 2.102 0 1 cbr 500 ------- 2 0.2 1.2 1 214
- 2.102 0 1 cbr 500 ------- 2 0.2 1.2 1 214
+ 2.1024 0 1 cbr 700 ------- 1 0.1 1.1 179 215
- 2.104 0 1 cbr 700 ------- 1 0.1 1.1 179 215
+ 2.104 0 1 cbr 500 ------- 2 0.2 1.2 2 216
r 2.104 0 1 cbr 700 ------- 1 0.1 1.1 177 211
+ 2.106 0 1 cbr 500 ------- 2 0.2 1.2 3 217
- 2.1068 0 1 cbr 500 ------- 2 0.2 1.2 2 216
+ 2.108 0 1 cbr 500 ------- 2 0.2 1.2 4 218
+ 2.108 0 1 cbr 700 ------- 1 0.1 1.1 180 219
- 2.1088 0 1 cbr 500 ------- 2 0.2 1.2 3 217
r 2.1096 0 1 cbr 700 ------- 1 0.1 1.1 178 212
+ 2.11 0 1 cbr 500 ------- 2 0.2 1.2 5 220
- 2.1108 0 1 cbr 500 ------- 2 0.2 1.2 4 218
+ 2.112 0 1 cbr 500 ------- 2 0.2 1.2 6 221
r 2.112 0 1 cbr 500 ------- 2 0.2 1.2 0 213
- 2.1128 0 1 cbr 700 ------- 1 0.1 1.1 180 219
+ 2.1136 0 1 cbr 700 ------- 1 0.1 1.1 181 222
+ 2.114 0 1 cbr 500 ------- 2 0.2 1.2 7 223