+ 0 0 1 cbr 3500 ------- 0 0.0 1.0 0 0
- 0 0 1 cbr 3500 ------- 0 0.0 1.0 0 0
r 0.024 0 1 cbr 3500 ------- 0 0.0 1.0 0 0
+ 0.1 0 1 cbr 3500 ------- 0 0.0 1.0 1 1
- 0.1 0 1 cbr 3500 ------- 0 0.0 1.0 1 1
r 0.124 0 1 cbr 3500 ------- 0 0.0 1.0 1 1
+ 0.2 0 1 cbr 3500 ------- 0 0.0 1.0 2 2
- 0.2 0 1 cbr 3500 ------- 0 0.0 1.0 2 2
r 0.224 0 1 cbr 3500 ------- 0 0.0 1.0 2 2
+ 0.3 0 1 cbr 3500 ------- 0 0.0 1.0 3 3
- 0.3 0 1 cbr 3500 ------- 0 0.0 1.0 3 3
r 0.324 0 1 cbr 3500 ------- 0 0.0 1.0 3 3
+ 0.4 0 1 cbr 3500 ------- 0 0.0 1.0 4 4
- 0.4 0 1 cbr 3500 ------- 0 0.0 1.0 4 4
r 0.424 0 1 cbr 3500 ------- 0 0.0 1.0 4 4
+ 0.5 0 1 cbr 3500 ------- 0 0.0 1.0 5 5
- 0.5 0 1 cbr 3500 ------- 0 0.0 1.0 5 5
r 0.524 0 1 cbr 3500 ------- 0 0.0 1.0 5 5
+ 0.6 0 1 cbr 3500 ------- 0 0.0 1.0 6 6
- 0.6 0 1 cbr 3500 ------- 0 0.0 1.0 6 6
r 0.624 0 1 cbr 3500 ------- 0 0.0 1.0 6 6
+ 0.7 0 1 cbr 3500 ------- 0 0.0 1.0 7 7
- 0.7 0 1 cbr 3500 ------- 0 0.0 1.0 7 7
r 0.724 0 1 cbr 3500 ------- 0 0.0 1.0 7 7
+ 0.8 0 1 cbr 3500 ------- 0 0.0 1.0 8 8
- 0.8 0 1 cbr 3500 ------- 0 0.0 1.0 8 8
r 0.824 0 1 cbr 3500 ------- 0 0.0 1.0 8 8
+ 0.9 0 1 cbr 3500 ------- 0 0.0 1.0 9 9
- 0.9 0 1 cbr 3500 ------- 0 0.0 1.0 9 9
r 0.924 0 1 cbr 3500 ------- 0 0.0 1.0 9 9
+ 1 0 1 cbr 3500 ------- 0 0.0 1.0 10 10
- 1 0 1 cbr 3500 ------- 0 0.0 1.0 10 10
r 1.024 0 1 cbr 3500 ------- 0 0.0 1.0 10 10
+ 1.1 0 1 cbr 3500 ------- 0 0.0 1.0 11 11
- 1.1 0 1 cbr 3500 ------- 0 0.0 1.0 11 11
r 1.124 0 1 cbr 3500 ------- 0 0.0 1.0 11 11
+ 1.2 0 1 cbr 3500 ------- 0 0.0 1.0 12 12
- 1.2 0 1 cbr 3500 ------- 0 0.0 1.0 12 12
r 1.224 0 1 cbr 3500 ------- 0 0.0 1.0 12 12
+ 1.3 0 1 cbr 3500 ------- 0 0.0 1.0 13 13
- 1.3 0 1 cbr 3500 ------- 0 0.0 1.0 13 13
r 1.324 0 1 cbr 3500 ------- 0 0.0 1.0 13 13
+ 1.4 0 1 cbr 3500 ------- 0 0.0 1.0 14 14
- 1.4 0 1 cbr 3500 ------- 0 0.0 1.0 14 14
r 1.424 0 1 cbr 3500 ------- 0 0.0 1.0 14 14
+ 1.5 0 1 cbr 3500 ------- 0 0.0 1.0 15 15
- 1.5 0 1 cbr 3500 ------- 0 0.0 1.0 15 15
r 1.524 0 1 cbr 3500 ------- 0 0.0 1.0 15 15
+ 1.6 0 1 cbr 3500 ------- 0 0.0 1.0 16 16
- 1.6 0 1 cbr 3500 ------- 0 0.0 1.0 16 16
r 1.624 0 1 cbr 3500 ------- 0 0.0 1.0 16 16
+ 1.7 0 1 cbr 3500 ------- 0 0.0 1.0 17 17
- 1.7 0 1 cbr 3500 ------- 0 0.0 1.0 17 17
r 1.724 0 1 cbr 3500 ------- 0 0.0 1.0 17 17
+ 1.8 0 1 cbr 3500 ------- 0 0.0 1.0 18 18
- 1.8 0 1 cbr 3500 ------- 0 0.0 1.0 18 18
r 1.824 0 1 cbr 3500 ------- 0 0.0 1.0 18 18
+ 1.9 0 1 cbr 3500 ------- 0 0.0 1.0 19 19
- 1.9 0 1 cbr 3500 ------- 0 0.0 1.0 19 19
r 1.924 0 1 cbr 3500 ------- 0 0.0 1.0 19 19
+ 2 0 1 cbr 3500 ------- 0 0.0 1.0 20 20
- 2 0 1 cbr 3500 ------- 0 0.0 1.0 20 20
r 2.024 0 1 cbr 3500 ------- 0 0.0 1.0 20 20
+ 2.1 0 1 cbr 3500 ------- 0 0.0 1.0 21 21
- 2.1 0 1 cbr 3500 ------- 0 0.0 1.0 21 21
r 2.124 0 1 cbr 3500 ------- 0 0.0 1.0 21 21
+ 2.2 0 1 cbr 3500 ------- 0 0.0 1.0 22 22
- 2.2 0 1 cbr 3500 ------- 0 0.0 1.0 22 22
r 2.224 0 1 cbr 3500 ------- 0 0.0 1.0 22 22
+ 2.3 0 1 cbr 3500 ------- 0 0.0 1.0 23 23
- 2.3 0 1 cbr 3500 ------- 0 0.0 1.0 23 23
r 2.324 0 1 cbr 3500 ------- 0 0.0 1.0 23 23
+ 2.4 0 1 cbr 3500 ------- 0 0.0 1.0 24 24
- 2.4 0 1 cbr 3500 ------- 0 0.0 1.0 24 24
r 2.424 0 1 cbr 3500 ------- 0 0.0 1.0 24 24
+ 2.5 0 1 cbr 3500 ------- 0 0.0 1.0 25 25
- 2.5 0 1 cbr 3500 ------- 0 0.0 1.0 25 25
r 2.524 0 1 cbr 3500 ------- 0 0.0 1.0 25 25
+ 2.6 0 1 cbr 3500 ------- 0 0.0 1.0 26 26
- 2.6 0 1 cbr 3500 ------- 0 0.0 1.0 26 26
r 2.624 0 1 cbr 3500 ------- 0 0.0 1.0 26 26
+ 2.7 0 1 cbr 3500 ------- 0 0.0 1.0 27 27
- 2.7 0 1 cbr 3500 ------- 0 0.0 1.0 27 27
r 2.724 0 1 cbr 3500 ------- 0 0.0 1.0 27 27
+ 2.8 0 1 cbr 3500 ------- 0 0.0 1.0 28 28
- 2.8 0 1 cbr 3500 ------- 0 0.0 1.0 28 28
r 2.824 0 1 cbr 3500 ------- 0 0.0 1.0 28 28
+ 2.9 0 1 cbr 3500 ------- 0 0.0 1.0 29 29
- 2.9 0 1 cbr 3500 ------- 0 0.0 1.0 29 29
r 2.924 0 1 cbr 3500 ------- 0 0.0 1.0 29 29
+ 3 0 1 cbr 3500 ------- 0 0.0 1.0 30 30
- 3 0 1 cbr 3500 ------- 0 0.0 1.0 30 30
r 3.024 0 1 cbr 3500 ------- 0 0.0 1.0 30 30
+ 3.1 0 1 cbr 3500 ------- 0 0.0 1.0 31 31
- 3.1 0 1 cbr 3500 ------- 0 0.0 1.0 31 31
r 3.124 0 1 cbr 3500 ------- 0 0.0 1.0 31 31
+ 3.2 0 1 cbr 3500 ------- 0 0.0 1.0 32 32
- 3.2 0 1 cbr 3500 ------- 0 0.0 1.0 32 32
r 3.224 0 1 cbr 3500 ------- 0 0.0 1.0 32 32
+ 3.3 0 1 cbr 3500 ------- 0 0.0 1.0 33 33
- 3.3 0 1 cbr 3500 ------- 0 0.0 1.0 33 33
r 3.324 0 1 cbr 3500 ------- 0 0.0 1.0 33 33
+ 3.4 0 1 cbr 3500 ------- 0 0.0 1.0 34 34
- 3.4 0 1 cbr 3500 ------- 0 0.0 1.0 34 34
r 3.424 0 1 cbr 3500 ------- 0 0.0 1.0 34 34
+ 3.5 0 1 cbr 3500 ------- 0 0.0 1.0 35 35
- 3.5 0 1 cbr 3500 ------- 0 0.0 1.0 35 35
r 3.524 0 1 cbr 3500 ------- 0 0.0 1.0 35 35
+ 3.6 0 1 cbr 3500 ------- 0 0.0 1.0 36 36
- 3.6 0 1 cbr 3500 ------- 0 0.0 1.0 36 36
r 3.624 0 1 cbr 3500 ------- 0 0.0 1.0 36 36
+ 3.7 0 1 cbr 3500 ------- 0 0.0 1.0 37 37
- 3.7 0 1 cbr 3500 ------- 0 0.0 1.0 37 37
r 3.724 0 1 cbr 3500 ------- 0 0.0 1.0 37 37
+ 3.8 0 1 cbr 3500 ------- 0 0.0 1.0 38 38
- 3.8 0 1 cbr 3500 ------- 0 0.0 1.0 38 38
r 3.824 0 1 cbr 3500 ------- 0 0.0 1.0 38 38
+ 3.9 0 1 cbr 3500 ------- 0 0.0 1.0 39 39
- 3.9 0 1 cbr 3500 ------- 0 0.0 1.0 39 39
r 3.924 0 1 cbr 3500 ------- 0 0.0 1.0 39 39
+ 4 0 1 cbr 3500 ------- 0 0.0 1.0 40 40
- 4 0 1 cbr 3500 ------- 0 0.0 1.0 40 40
r 4.024 0 1 cbr 3500 ------- 0 0.0 1.0 40 40
+ 4.1 0 1 cbr 3500 ------- 0 0.0 1.0 41 41
- 4.1 0 1 cbr 3500 ------- 0 0.0 1.0 41 41
r 4.124 0 1 cbr 3500 ------- 0 0.0 1.0 41 41
+ 4.2 0 1 cbr 3500 ------- 0 0.0 1.0 42 42
- 4.2 0 1 cbr 3500 ------- 0 0.0 1.0 42 42
r 4.224 0 1 cbr 3500 ------- 0 0.0 1.0 42 42
+ 4.3 0 1 cbr 3500 ------- 0 0.0 1.0 43 43
- 4.3 0 1 cbr 3500 ------- 0 0.0 1.0 43 43
r 4.324 0 1 cbr 3500 ------- 0 0.0 1.0 43 43
+ 4.4 0 1 cbr 3500 ------- 0 0.0 1.0 44 44
- 4.4 0 1 cbr 3500 ------- 0 0.0 1.0 44 44
r 4.424 0 1 cbr 3500 ------- 0 0.0 1.0 44 44
+ 4.5 0 1 cbr 3500 ------- 0 0.0 1.0 45 45
- 4.5 0 1 cbr 3500 ------- 0 0.0 1.0 45 45
r 4.524 0 1 cbr 3500 ------- 0 0.0 1.0 45 45
+ 4.6 0 1 cbr 3500 ------- 0 0.0 1.0 46 46
- 4.6 0 1 cbr 3500 ------- 0 0.0 1.0 46 46
r 4.624 0 1 cbr 3500 ------- 0 0.0 1.0 46 46
+ 4.7 0 1 cbr 3500 ------- 0 0.0 1.0 47 47
- 4.7 0 1 cbr 3500 ------- 0 0.0 1.0 47 47
r 4.724 0 1 cbr 3500 ------- 0 0.0 1.0 47 47
+ 4.8 0 1 cbr 3500 ------- 0 0.0 1.0 48 48
- 4.8 0 1 cbr 3500 ------- 0 0.0 1.0 48 48
r 4.824 0 1 cbr 3500 ------- 0 0.0 1.0 48 48
+ 4.9 0 1 cbr 3500 ------- 0 0.0 1.0 49 49
- 4.9 0 1 cbr 3500 ------- 0 0.0 1.0 49 49
r 4.924 0 1 cbr 3500 ------- 0 0.0 1.0 49 49
+ 5 0 1 cbr 3500 ------- 0 0.0 1.0 50 50
- 5 0 1 cbr 3500 ------- 0 0.0 1.0 50 50
r 5.024 0 1 cbr 3500 ------- 0 0.0 1.0 50 50
+ 5.1 0 1 cbr 3500 ------- 0 0.0 1.0 51 51
- 5.1 0 1 cbr 3500 ------- 0 0.0 1.0 51 51
r 5.124 0 1 cbr 3500 ------- 0 0.0 1.0 51 51
+ 5.2 0 1 cbr 3500 ------- 1 0.1 1.1 0 911
- 5.2 0 1 cbr 3500 ------- 1 0.1 1.1 0 911
r 5.224 0 1 cbr 3500 ------- 1 0.1 1.1 0 911
+ 5.3 0 1 cbr 3500 ------- 0 0.0 1.0 52 52
- 5.3 0 1 cbr 3500 ------- 0 0.0 1.0 52 52
r 5.324 0 1 cbr 3500 ------- 0 0.0 1.0 52 52
+ 5.4 0 1 cbr 3500 ------- 1 0.1 1.1 1 913
- 5.4 0 1 cbr 3500 ------- 1 0.1 1.1 1 913
r 5.424 0 1 cbr 3500 ------- 1 0.1 1.1 1 913
+ 5.5 0 1 cbr 3500 ------- 0 0.0 1.0 53 53
- 5.5 0 1 cbr 3500 ------- 0 0.0 1.0 53 53
r 5.524 0 1 cbr 3500 ------- 0 0.0 1.0 53 53
+ 5.6 0 1 cbr 3500 ------- 1 0.1 1.1 2 915
- 5.6 0 1 cbr 3500 ------- 1 0.1 1.1 2 915
r 5.624 0 1 cbr 3500 ------- 1 0.1 1.1 2 915
+ 5.7 0 1 cbr 3500 ------- 0 0.0 1.0 54 54
- 5.7 0 1 cbr 3500 ------- 0 0.0 1.0 54 54
r 5.724 0 1 cbr 3500 ------- 0 0.0 1.0 54 54
+ 5.8 0 1 cbr 3500 ------- 1 0.1 1.1 3 917
- 5.8 0 1 cbr 3500 ------- 1 0.1 1.1 3 917
r 5.824 0 1 cbr 3500 ------- 1 0.1 1.1 3 917
+ 5.9 0 1 cbr 3500 ------- 0 0.0 1.0 55 55
- 5.9 0 1 cbr 3500 ------- 0 0.0 1.0 55 55
r 5.924 0 1 cbr 3500 ------- 0 0.0 1.0 55 55
+ 6 0 1 cbr 3500 ------- 1 0.1 1.1 4 919
- 6 0 1 cbr 3500 ------- 1 0.1 1.1 4 919
r 6.024 0 1 cbr 3500 ------- 1 0.1 1.1 4 919
+ 6.1 0 1 cbr 3500 ------- 0 0.0 1.0 56 56
- 6.1 0 1 cbr 3500 ------- 0 0.0 1.0 56 56
r 6.124 0 1 cbr 3500 ------- 0 0.0 1.0 56 56
+ 6.2 0 1 cbr 3500 ------- 1 0.1 1.1 5 921
- 6.2 0 1 cbr 3500 ------- 1 0.1 1.1 5 921
r 6.224 0 1 cbr 3500 ------- 1 0.1 1.1 5 921
+ 6.3 0 1 cbr 3500 ------- 0 0.0 1.0 57 57
- 6.3 0 1 cbr 3500 ------- 0 0.0 1.0 57 57
r 6.324 0 1 cbr 3500 ------- 0 0.0 1.0 57 57
+ 6.4 0 1 cbr 3500 ------- 1 0.1 1.1 6 923
- 6.4 0 1 cbr 3500 ------- 1 0.1 1.1 6 923
r 6.424 0 1 cbr 3500 ------- 1 0.1 1.1 6 923
+ 6.5 0 1 cbr 3500 ------- 0 0.0 1.0 58 58
- 6.5 0 1 cbr 3500 ------- 0 0.0 1.0 58 58
r 6.524 0 1 cbr 3500 ------- 0 0.0 1.0 58 58
+ 6.6 0 1 cbr 3500 ------- 1 0.1 1.1 7 925
- 6.6 0 1 cbr 3500 ------- 1 0.1 1.1 7 925
r 6.624 0 1 cbr 3500 ------- 1 0.1 1.1 7 925
+ 6.7 0 1 cbr 3500 ------- 0 0.0 1.0 59 59
- 6.7 0 1 cbr 3500 ------- 0 0.0 1.0 59 59
r 6.724 0 1 cbr 3500 ------- 0 0.0 1.0 59 59
+ 6.8 0 1 cbr 3500 ------- 1 0.1 1.1 8 927
- 6.8 0 1 cbr 3500 ------- 1 0.1 1.1 8 927
r 6.824 0 1 cbr 3500 ------- 1 0.1 1.1 8 927
+ 6.9 0 1 cbr 3500 ------- 0 0.0 1.0 60 60
- 6.9 0 1 cbr 3500 ------- 0 0.0 1.0 60 60
r 6.924 0 1 cbr 3500 ------- 0 0.0 1.0 60 60
+ 7 0 1 cbr 3500 ------- 1 0.1 1.1 9 929
- 7 0 1 cbr 3500 ------- 1 0.1 1.1 9 929
r 7.024 0 1 cbr 3500 ------- 1 0.1 1.1 9 929
+ 7.1 0 1 cbr 3500 ------- 0 0.0 1.0 61 61
- 7.1 0 1 cbr 3500 ------- 0 0.0 1.0 61 61
r 7.124 0 1 cbr 3500 ------- 0 0.0 1.0 61 61
+ 7.2 0 1 cbr 3500 ------- 1 0.1 1.1 10 931
- 7.2 0 1 cbr 3500 ------- 1 0.1 1.1 10 931
r 7.224 0 1 cbr 3500 ------- 1 0.1 1.1 10 931
+ 7.3 0 1 cbr 3500 ------- 0 0.0 1.0 62 62
- 7.3 0 1 cbr 3500 ------- 0 0.0 1.0 62 62
r 7.324 0 1 cbr 3500 ------- 0 0.0 1.0 62 62
+ 7.4 0 1 cbr 3500 ------- 1 0.1 1.1 11 933
- 7.4 0 1 cbr 3500 ------- 1 0.1 1.1 11 933
r 7.424 0 1 cbr 3500 ------- 1 0.1 1.1 11 933
+ 7.5 0 1 cbr 3500 ------- 0 0.0 1.0 63 63
- 7.5 0 1 cbr 3500 ------- 0 0.0 1.0 63 63
r 7.524 0 1 cbr 3500 ------- 0 0.0 1.0 63 63
+ 7.6 0 1 cbr 3500 ------- 1 0.1 1.1 12 935
- 7.6 0 1 cbr 3500 ------- 1 0.1 1.1 12 935
r 7.624 0 1 cbr 3500 ------- 1 0.1 1.1 12 935
+ 7.7 0 1 cbr 3500 ------- 0 0.0 1.0 64 64
- 7.7 0 1 cbr 3500 ------- 0 0.0 1.0 64 64
r 7.724 0 1 cbr 3500 ------- 0 0.0 1.0 64 64
+ 7.8 0 1 cbr 3500 ------- 1 0.1 1.1 13 937
- 7.8 0 1 cbr 3500 ------- 1 0.1 1.1 13 937
r 7.824 0 1 cbr 3500 ------- 1 0.1 1.1 13 937
+ 7.9 0 1 cbr 3500 ------- 0 0.0 1.0 65 65
- 7.9 0 1 cbr 3500 ------- 0 0.0 1.0 65 65
r 7.924 0 1 cbr 3500 ------- 0 0.0 1.0 65 65
+ 8 0 1 cbr 3500 ------- 1 0.1 1.1 14 939
- 8 0 1 cbr 3500 ------- 1 0.1 1.1 14 939
r 8.024 0 1 cbr 3500 ------- 1 0.1 1.1 14 939
+ 8.1 0 1 cbr 3500 ------- 0 0.0 1.0 66 66
- 8.1 0 1 cbr 3500 ------- 0 0.0 1.0 66 66
r 8.124 0 1 cbr 3500 ------- 0 0.0 1.0 66 66
+ 8.2 0 1 cbr 3500 ------- 1 0.1 1.1 15 941
- 8.2 0 1 cbr 3500 ------- 1 0.1 1.1 15 941
r 8.224 0 1 cbr 3500 ------- 1 0.1 1.1 15 941
+ 8.3 0 1 cbr 3500 ------- 0 0.0 1.0 67 67
- 8.3 0 1 cbr 3500 ------- 0 0.0 1.0 67 67
r 8.324 0 1 cbr 3500 ------- 0 0.0 1.0 67 67
+ 8.4 0 1 cbr 3500 ------- 1 0.1 1.1 16 943
- 8.4 0 1 cbr 3500 ------- 1 0.1 1.1 16 943
r 8.424 0 1 cbr 3500 ------- 1 0.1 1.1 16 943
+ 8.5 0 1 cbr 3500 ------- 0 0.0 1.0 68 68
- 8.5 0 1 cbr 3500 ------- 0 0.0 1.0 68 68
r 8.524 0 1 cbr 3500 ------- 0 0.0 1.0 68 68
+ 8.6 0 1 cbr 3500 ------- 1 0.1 1.1 17 945
- 8.6 0 1 cbr 3500 ------- 1 0.1 1.1 17 945
r 8.624 0 1 cbr 3500 ------- 1 0.1 1.1 17 945
+ 8.7 0 1 cbr 3500 ------- 0 0.0 1.0 69 69
- 8.7 0 1 cbr 3500 ------- 0 0.0 1.0 69 69
r 8.724 0 1 cbr 3500 ------- 0 0.0 1.0 69 69
+ 8.8 0 1 cbr 3500 ------- 1 0.1 1.1 18 947
- 8.8 0 1 cbr 3500 ------- 1 0.1 1.1 18 947
r 8.824 0 1 cbr 3500 ------- 1 0.1 1.1 18 947
+ 8.9 0 1 cbr 3500 ------- 0 0.0 1.0 70 70
- 8.9 0 1 cbr 3500 ------- 0 0.0 1.0 70 70
r 8.924 0 1 cbr 3500 ------- 0 0.0 1.0 70 70
+ 9 0 1 cbr 3500 ------- 1 0.1 1.1 19 949
- 9 0 1 cbr 3500 ------- 1 0.1 1.1 19 949
r 9.024 0 1 cbr 3500 ------- 1 0.1 1.1 19 949
+ 9.1 0 1 cbr 3500 ------- 0 0.0 1.0 71 71
- 9.1 0 1 cbr 3500 ------- 0 0.0 1.0 71 71
r 9.124 0 1 cbr 3500 ------- 0 0.0 1.0 71 71
+ 9.2 0 1 cbr 3500 ------- 1 0.1 1.1 20 951
- 9.2 0 1 cbr 3500 ------- 1 0.1 1.1 20 951
r 9.224 0 1 cbr 3500 ------- 1 0.1 1.1 20 951
+ 9.3 0 1 cbr 3500 ------- 0 0.0 1.0 72 72
- 9.3 0 1 cbr 3500 ------- 0 0.0 1.0 72 72
r 9.324 0 1 cbr 3500 ------- 0 0.0 1.0 72 72
+ 9.4 0 1 cbr 3500 ------- 1 0.1 1.1 21 953
- 9.4 0 1 cbr 3500 ------- 1 0.1 1.1 21 953
r 9.424 0 1 cbr 3500 ------- 1 0.1 1.1 21 953
+ 9.5 0 1 cbr 3500 ------- 0 0.0 1.0 73 73
- 9.5 0 1 cbr 3500 ------- 0 0.0 1.0 73 73
r 9.524 0 1 cbr 3500 ------- 0 0.0 1.0 73 73
+ 9.6 0 1 cbr 3500 ------- 1 0.1 1.1 22 955
- 9.6 0 1 cbr 3500 ------- 1 0.1 1.1 22 955
r 9.624 0 1 cbr 3500 ------- 1 0.1 1.1 22 955
+ 9.7 0 1 cbr 3500 ------- 0 0.0 1.0 74 74
- 9.7 0 1 cbr 3500 ------- 0 0.0 1.0 74 74
r 9.724 0 1 cbr 3500 ------- 0 0.0 1.0 74 74
+ 9.8 0 1 cbr 3500 ------- 1 0.1 1.1 23 957
- 9.8 0 1 cbr 3500 ------- 1 0.1 1.1 23 957
r 9.824 0 1 cbr 3500 ------- 1 0.1 1.1 23 957
+ 9.9 0 1 cbr 3500 ------- 0 0.0 1.0 75 75
- 9.9 0 1 cbr 3500 ------- 0 0.0 1.0 75 75
r 9.924 0 1 cbr 3500 ------- 0 0.0 1.0 75 75
+ 10 0 1 cbr 3500 ------- 1 0.1 1.1 24 959
- 10 0 1 cbr 3500 ------- 1 0.1 1.1 24 959
r 10.024 0 1 cbr 3500 ------- 1 0.1 1.1 24 959
+ 10.1 0 1 cbr 3500 ------- 2 0.2 1.2 0 2304
- 10.1 0 1 cbr 3500 ------- 2 0.2 1.2 0 2304
r 10.124 0 1 cbr 3500 ------- 2 0.2 1.2 0 2304
+ 10.2 0 1 cbr 3500 ------- 0 0.0 1.0 76 76
- 10.2 0 1 cbr 3500 ------- 0 0.0 1.0 76 76
r 10.224 0 1 cbr 3500 ------- 0 0.0 1.0 76 76
+ 10.3 0 1 cbr 3500 ------- 1 0.1 1.1 25 961
- 10.3 0 1 cbr 3500 ------- 1 0.1 1.1 25 961
r 10.324 0 1 cbr 3500 ------- 1 0.1 1.1 25 961
+ 10.4 0 1 cbr 3500 ------- 2 0.2 1.2 1 2306
- 10.4 0 1 cbr 3500 ------- 2 0.2 1.2 1 2306
r 10.424 0 1 cbr 3500 ------- 2 0.2 1.2 1 2306
+ 10.5 0 1 cbr 3500 ------- 0 0.0 1.0 77 77
- 10.5 0 1 cbr 3500 ------- 0 0.0 1.0 77 77
r 10.524 0 1 cbr 3500 ------- 0 0.0 1.0 77 77
+ 10.6 0 1 cbr 3500 ------- 1 0.1 1.1 26 963
- 10.6 0 1 cbr 3500 ------- 1 0.1 1.1 26 963
r 10.624 0 1 cbr 3500 ------- 1 0.1 1.1 26 963
+ 10.7 0 1 cbr 3500 ------- 2 0.2 1.2 2 2308
- 10.7 0 1 cbr 3500 ------- 2 0.2 1.2 2 2308
r 10.724 0 1 cbr 3500 ------- 2 0.2 1.2 2 2308
+ 10.8 0 1 cbr 3500 ------- 0 0.0 1.0 78 78
- 10.8 0 1 cbr 3500 ------- 0 0.0 1.0 78 78
r 10.824 0 1 cbr 3500 ------- 0 0.0 1.0 78 78
+ 10.9 0 1 cbr 3500 ------- 1 0.1 1.1 27 965
- 10.9 0 1 cbr 3500 ------- 1 0.1 1.1 27 965
r 10.924 0 1 cbr 3500 ------- 1 0.1 1.1 27 965
+ 11 0 1 cbr 3500 ------- 2 0.2 1.2 3 2310
- 11 0 1 cbr 3500 ------- 2 0.2 1.2 3 2310
r 11.024 0 1 cbr 3500 ------- 2 0.2 1.2 3 2310
+ 11.1 0 1 cbr 3500 ------- 0 0.0 1.0 79 79
- 11.1 0 1 cbr 3500 ------- 0 0.0 1.0 79 79
r 11.124 0 1 cbr 3500 ------- 0 0.0 1.0 79 79
+ 11.2 0 1 cbr 3500 ------- 1 0.1 1.1 28 967
- 11.2 0 1 cbr 3500 ------- 1 0.1 1.1 28 967
r 11.224 0 1 cbr 3500 ------- 1 0.1 1.1 28 967
+ 11.3 0 1 cbr 3500 ------- 2 0.2 1.2 4 2312
- 11.3 0 1 cbr 3500 ------- 2 0.2 1.2 4 2312
r 11.324 0 1 cbr 3500 ------- 2 0.2 1.2 4 2312
+ 11.4 0 1 cbr 3500 ------- 0 0.0 1.0 80 80
- 11.4 0 1 cbr 3500 ------- 0 0.0 1.0 80 80
r 11.424 0 1 cbr 3500 ------- 0 0.0 1.0 80 80
+ 11.5 0 1 cbr 3500 ------- 1 0.1 1.1 29 969
- 11.5 0 1 cbr 3500 ------- 1 0.1 1.1 29 969
r 11.524 0 1 cbr 3500 ------- 1 0.1 1.1 29 969
+ 11.6 0 1 cbr 3500 ------- 2 0.2 1.2 5 2314
- 11.6 0 1 cbr 3500 ------- 2 0.2 1.2 5 2314
r 11.624 0 1 cbr 3500 ------- 2 0.2 1.2 5 2314
+ 11.7 0 1 cbr 3500 ------- 0 0.0 1.0 81 81
- 11.7 0 1 cbr 3500 ------- 0 0.0 1.0 81 81
r 11.724 0 1 cbr 3500 ------- 0 0.0 1.0 81 81
+ 11.8 0 1 cbr 3500 ------- 1 0.1 1.1 30 971
- 11.8 0 1 cbr 3500 ------- 1 0.1 1.1 30 971
r 11.824 0 1 cbr 3500 ------- 1 0.1 1.1 30 971
+ 11.9 0 1 cbr 3500 ------- 2 0.2 1.2 6 2316
- 11.9 0 1 cbr 3500 ------- 2 0.2 1.2 6 2316
r 11.924 0 1 cbr 3500 ------- 2 0.2 1.2 6 2316
+ 12 0 1 cbr 3500 ------- 0 0.0 1.0 82 82
- 12 0 1 cbr 3500 ------- 0 0.0 1.0 82 82
r 12.024 0 1 cbr 3500 ------- 0 0.0 1.0 82 82
+ 12.1 0 1 cbr 3500 ------- 1 0.1 1.1 31 973
- 12.1 0 1 cbr 3500 ------- 1 0.1 1.1 31 973
r 12.124 0 1 cbr 3500 ------- 1 0.1 1.1 31 973
+ 12.2 0 1 cbr 3500 ------- 2 0.2 1.2 7 2318
- 12.2 0 1 cbr 3500 ------- 2 0.2 1.2 7 2318
r 12.224 0 1 cbr 3500 ------- 2 0.2 1.2 7 2318
+ 12.3 0 1 cbr 3500 ------- 0 0.0 1.0 83 83
- 12.3 0 1 cbr 3500 ------- 0 0.0 1.0 83 83
r 12.324 0 1 cbr 3500 ------- 0 0.0 1.0 83 83
+ 12.4 0 1 cbr 3500 ------- 1 0.1 1.1 32 975
- 12.4 0 1 cbr 3500 ------- 1 0.1 1.1 32 975
r 12.424 0 1 cbr 3500 ------- 1 0.1 1.1 32 975
+ 12.5 0 1 cbr 3500 ------- 2 0.2 1.2 8 2320
- 12.5 0 1 cbr 3500 ------- 2 0.2 1.2 8 2320
r 12.524 0 1 cbr 3500 ------- 2 0.2 1.2 8 2320
+ 12.6 0 1 cbr 3500 ------- 0 0.0 1.0 84 84
- 12.6 0 1 cbr 3500 ------- 0 0.0 1.0 84 84
r 12.624 0 1 cbr 3500 ------- 0 0.0 1.0 84 84
+ 12.7 0 1 cbr 3500 ------- 1 0.1 1.1 33 977
- 12.7 0 1 cbr 3500 ------- 1 0.1 1.1 33 977
r 12.724 0 1 cbr 3500 ------- 1 0.1 1.1 33 977
+ 12.8 0 1 cbr 3500 ------- 2 0.2 1.2 9 2322
- 12.8 0 1 cbr 3500 ------- 2 0.2 1.2 9 2322
r 12.824 0 1 cbr 3500 ------- 2 0.2 1.2 9 2322
+ 12.9 0 1 cbr 3500 ------- 0 0.0 1.0 85 85
- 12.9 0 1 cbr 3500 ------- 0 0.0 1.0 85 85
r 12.924 0 1 cbr 3500 ------- 0 0.0 1.0 85 85
+ 13 0 1 cbr 3500 ------- 1 0.1 1.1 34 979
- 13 0 1 cbr 3500 ------- 1 0.1 1.1 34 979
r 13.024 0 1 cbr 3500 ------- 1 0.1 1.1 34 979
+ 13.1 0 1 cbr 3500 ------- 2 0.2 1.2 10 2324
- 13.1 0 1 cbr 3500 ------- 2 0.2 1.2 10 2324
r 13.124 0 1 cbr 3500 ------- 2 0.2 1.2 10 2324
+ 13.2 0 1 cbr 3500 ------- 0 0.0 1.0 86 86
- 13.2 0 1 cbr 3500 ------- 0 0.0 1.0 86 86
r 13.224 0 1 cbr 3500 ------- 0 0.0 1.0 86 86
+ 13.3 0 1 cbr 3500 ------- 1 0.1 1.1 35 981
- 13.3 0 1 cbr 3500 ------- 1 0.1 1.1 35 981
r 13.324 0 1 cbr 3500 ------- 1 0.1 1.1 35 981
+ 13.4 0 1 cbr 3500 ------- 2 0.2 1.2 11 2326
- 13.4 0 1 cbr 3500 ------- 2 0.2 1.2 11 2326
r 13.424 0 1 cbr 3500 ------- 2 0.2 1.2 11 2326
+ 13.5 0 1 cbr 3500 ------- 0 0.0 1.0 87 87
- 13.5 0 1 cbr 3500 ------- 0 0.0 1.0 87 87
r 13.524 0 1 cbr 3500 ------- 0 0.0 1.0 87 87
+ 13.6 0 1 cbr 3500 ------- 1 0.1 1.1 36 983
- 13.6 0 1 cbr 3500 ------- 1 0.1 1.1 36 983
r 13.624 0 1 cbr 3500 ------- 1 0.1 1.1 36 983
+ 13.7 0 1 cbr 3500 ------- 2 0.2 1.2 12 2328
- 13.7 0 1 cbr 3500 ------- 2 0.2 1.2 12 2328
r 13.724 0 1 cbr 3500 ------- 2 0.2 1.2 12 2328
+ 13.8 0 1 cbr 3500 ------- 0 0.0 1.0 88 88
- 13.8 0 1 cbr 3500 ------- 0 0.0 1.0 88 88
r 13.824 0 1 cbr 3500 ------- 0 0.0 1.0 88 88
+ 13.9 0 1 cbr 3500 ------- 1 0.1 1.1 37 985
- 13.9 0 1 cbr 3500 ------- 1 0.1 1.1 37 985
r 13.924 0 1 cbr 3500 ------- 1 0.1 1.1 37 985
+ 14 0 1 cbr 3500 ------- 2 0.2 1.2 13 2330
- 14 0 1 cbr 3500 ------- 2 0.2 1.2 13 2330
r 14.024 0 1 cbr 3500 ------- 2 0.2 1.2 13 2330
+ 14.1 0 1 cbr 3500 ------- 0 0.0 1.0 89 89
- 14.1 0 1 cbr 3500 ------- 0 0.0 1.0 89 89
r 14.124 0 1 cbr 3500 ------- 0 0.0 1.0 89 89
+ 14.2 0 1 cbr 3500 ------- 1 0.1 1.1 38 987
- 14.2 0 1 cbr 3500 ------- 1 0.1 1.1 38 987
r 14.224 0 1 cbr 3500 ------- 1 0.1 1.1 38 987
+ 14.3 0 1 cbr 3500 ------- 2 0.2 1.2 14 2332
- 14.3 0 1 cbr 3500 ------- 2 0.2 1.2 14 2332
r 14.324 0 1 cbr 3500 ------- 2 0.2 1.2 14 2332
+ 14.4 0 1 cbr 3500 ------- 0 0.0 1.0 90 90
- 14.4 0 1 cbr 3500 ------- 0 0.0 1.0 90 90
r 14.424 0 1 cbr 3500 ------- 0 0.0 1.0 90 90
+ 14.5 0 1 cbr 3500 ------- 1 0.1 1.1 39 989
- 14.5 0 1 cbr 3500 ------- 1 0.1 1.1 39 989
r 14.524 0 1 cbr 3500 ------- 1 0.1 1.1 39 989
+ 14.6 0 1 cbr 3500 ------- 2 0.2 1.2 15 2334
- 14.6 0 1 cbr 3500 ------- 2 0.2 1.2 15 2334
r 14.624 0 1 cbr 3500 ------- 2 0.2 1.2 15 2334
+ 14.7 0 1 cbr 3500 ------- 0 0.0 1.0 91 91
- 14.7 0 1 cbr 3500 ------- 0 0.0 1.0 91 91
r 14.724 0 1 cbr 3500 ------- 0 0.0 1.0 91 91
+ 14.8 0 1 cbr 3500 ------- 1 0.1 1.1 40 991
- 14.8 0 1 cbr 3500 ------- 1 0.1 1.1 40 991
r 14.824 0 1 cbr 3500 ------- 1 0.1 1.1 40 991
+ 14.9 0 1 cbr 3500 ------- 2 0.2 1.2 16 2336
- 14.9 0 1 cbr 3500 ------- 2 0.2 1.2 16 2336
r 14.924 0 1 cbr 3500 ------- 2 0.2 1.2 16 2336
+ 15 0 1 cbr 3500 ------- 0 0.0 1.0 92 92
- 15 0 1 cbr 3500 ------- 0 0.0 1.0 92 92
r 15.024 0 1 cbr 3500 ------- 0 0.0 1.0 92 92
+ 15.1 0 1 cbr 3500 ------- 1 0.1 1.1 41 993
- 15.1 0 1 cbr 3500 ------- 1 0.1 1.1 41 993
r 15.124 0 1 cbr 3500 ------- 1 0.1 1.1 41 993
+ 15.2 0 1 cbr 3500 ------- 2 0.2 1.2 17 2338
- 15.2 0 1 cbr 3500 ------- 2 0.2 1.2 17 2338
r 15.224 0 1 cbr 3500 ------- 2 0.2 1.2 17 2338
+ 15.3 0 1 cbr 3500 ------- 0 0.0 1.0 93 93
- 15.3 0 1 cbr 3500 ------- 0 0.0 1.0 93 93
r 15.324 0 1 cbr 3500 ------- 0 0.0 1.0 93 93
+ 15.4 0 1 cbr 3500 ------- 1 0.1 1.1 42 995
- 15.4 0 1 cbr 3500 ------- 1 0.1 1.1 42 995
r 15.424 0 1 cbr 3500 ------- 1 0.1 1.1 42 995
+ 15.5 0 1 cbr 3500 ------- 0 0.0 1.0 94 94
- 15.5 0 1 cbr 3500 ------- 0 0.0 1.0 94 94
r 15.524 0 1 cbr 3500 ------- 0 0.0 1.0 94 94
+ 15.6 0 1 cbr 3500 ------- 1 0.1 1.1 43 997
- 15.6 0 1 cbr 3500 ------- 1 0.1 1.1 43 997
r 15.624 0 1 cbr 3500 ------- 1 0.1 1.1 43 997
+ 15.7 0 1 cbr 3500 ------- 0 0.0 1.0 95 95
- 15.7 0 1 cbr 3500 ------- 0 0.0 1.0 95 95
r 15.724 0 1 cbr 3500 ------- 0 0.0 1.0 95 95
+ 15.8 0 1 cbr 3500 ------- 1 0.1 1.1 44 999
- 15.8 0 1 cbr 3500 ------- 1 0.1 1.1 44 999
r 15.824 0 1 cbr 3500 ------- 1 0.1 1.1 44 999
+ 15.9 0 1 cbr 3500 ------- 0 0.0 1.0 96 96
- 15.9 0 1 cbr 3500 ------- 0 0.0 1.0 96 96
r 15.924 0 1 cbr 3500 ------- 0 0.0 1.0 96 96
+ 16 0 1 cbr 3500 ------- 1 0.1 1.1 45 1001
- 16 0 1 cbr 3500 ------- 1 0.1 1.1 45 1001
r 16.024 0 1 cbr 3500 ------- 1 0.1 1.1 45 1001
+ 16.1 0 1 cbr 3500 ------- 0 0.0 1.0 97 97
- 16.1 0 1 cbr 3500 ------- 0 0.0 1.0 97 97
r 16.124 0 1 cbr 3500 ------- 0 0.0 1.0 97 97
+ 16.2 0 1 cbr 3500 ------- 1 0.1 1.1 46 1003
- 16.2 0 1 cbr 3500 ------- 1 0.1 1.1 46 1003
r 16.224 0 1 cbr 3500 ------- 1 0.1 1.1 46 1003
+ 16.3 0 1 cbr 3500 ------- 0 0.0 1.0 98 98
- 16.3 0 1 cbr 3500 ------- 0 0.0 1.0 98 98
r 16.324 0 1 cbr 3500 ------- 0 0.0 1.0 98 98
+ 16.4 0 1 cbr 3500 ------- 1 0.1 1.1 47 1005
- 16.4 0 1 cbr 3500 ------- 1 0.1 1.1 47 1005
r 16.424 0 1 cbr 3500 ------- 1 0.1 1.1 47 1005
+ 16.5 0 1 cbr 3500 ------- 0 0.0 1.0 99 99
- 16.5 0 1 cbr 3500 ------- 0 0.0 1.0 99 99
r 16.524 0 1 cbr 3500 ------- 0 0.0 1.0 99 99
+ 16.6 0 1 cbr 3500 ------- 1 0.1 1.1 48 1007
- 16.6 0 1 cbr 3500 ------- 1 0.1 1.1 48 1007
r 16.624 0 1 cbr 3500 ------- 1 0.1 1.1 48 1007
+ 16.7 0 1 cbr 3500 ------- 0 0.0 1.0 100 100
- 16.7 0 1 cbr 3500 ------- 0 0.0 1.0 100 100
r 16.724 0 1 cbr 3500 ------- 0 0.0 1.0 100 100
+ 16.8 0 1 cbr 3500 ------- 1 0.1 1.1 49 1009
- 16.8 0 1 cbr 3500 ------- 1 0.1 1.1 49 1009
r 16.824 0 1 cbr 3500 ------- 1 0.1 1.1 49 1009
+ 16.9 0 1 cbr 3500 ------- 0 0.0 1.0 101 101
- 16.9 0 1 cbr 3500 ------- 0 0.0 1.0 101 101
r 16.924 0 1 cbr 3500 ------- 0 0.0 1.0 101 101
+ 17 0 1 cbr 3500 ------- 1 0.1 1.1 50 1011
- 17 0 1 cbr 3500 ------- 1 0.1 1.1 50 1011
r 17.024 0 1 cbr 3500 ------- 1 0.1 1.1 50 1011
+ 17.1 0 1 cbr 3500 ------- 0 0.0 1.0 102 102
- 17.1 0 1 cbr 3500 ------- 0 0.0 1.0 102 102
r 17.124 0 1 cbr 3500 ------- 0 0.0 1.0 102 102
+ 17.2 0 1 cbr 3500 ------- 1 0.1 1.1 51 1013
- 17.2 0 1 cbr 3500 ------- 1 0.1 1.1 51 1013
r 17.224 0 1 cbr 3500 ------- 1 0.1 1.1 51 1013
+ 17.3 0 1 cbr 3500 ------- 0 0.0 1.0 103 103
- 17.3 0 1 cbr 3500 ------- 0 0.0 1.0 103 103
r 17.324 0 1 cbr 3500 ------- 0 0.0 1.0 103 103
+ 17.4 0 1 cbr 3500 ------- 1 0.1 1.1 52 1015
- 17.4 0 1 cbr 3500 ------- 1 0.1 1.1 52 1015
r 17.424 0 1 cbr 3500 ------- 1 0.1 1.1 52 1015
+ 17.5 0 1 cbr 3500 ------- 0 0.0 1.0 104 104
- 17.5 0 1 cbr 3500 ------- 0 0.0 1.0 104 104
r 17.524 0 1 cbr 3500 ------- 0 0.0 1.0 104 104
+ 17.6 0 1 cbr 3500 ------- 1 0.1 1.1 53 1017
- 17.6 0 1 cbr 3500 ------- 1 0.1 1.1 53 1017
r 17.624 0 1 cbr 3500 ------- 1 0.1 1.1 53 1017
+ 17.7 0 1 cbr 3500 ------- 0 0.0 1.0 105 105
- 17.7 0 1 cbr 3500 ------- 0 0.0 1.0 105 105
r 17.724 0 1 cbr 3500 ------- 0 0.0 1.0 105 105
+ 17.8 0 1 cbr 3500 ------- 1 0.1 1.1 54 1019
- 17.8 0 1 cbr 3500 ------- 1 0.1 1.1 54 1019
r 17.824 0 1 cbr 3500 ------- 1 0.1 1.1 54 1019
+ 17.9 0 1 cbr 3500 ------- 0 0.0 1.0 108 108
- 17.9 0 1 cbr 3500 ------- 0 0.0 1.0 108 108
r 17.924 0 1 cbr 3500 ------- 0 0.0 1.0 108 108
+ 18 0 1 cbr 3500 ------- 1 0.1 1.1 55 1021
- 18 0 1 cbr 3500 ------- 1 0.1 1.1 55 1021
r 18.024 0 1 cbr 3500 ------- 1 0.1 1.1 55 1021
+ 18.1 0 1 cbr 3500 ------- 0 0.0 1.0 125 125
- 18.1 0 1 cbr 3500 ------- 0 0.0 1.0 125 125
r 18.124 0 1 cbr 3500 ------- 0 0.0 1.0 125 125
+ 18.2 0 1 cbr 3500 ------- 1 0.1 1.1 56 1023
- 18.2 0 1 cbr 3500 ------- 1 0.1 1.1 56 1023
r 18.224 0 1 cbr 3500 ------- 1 0.1 1.1 56 1023
+ 18.3 0 1 cbr 3500 ------- 0 0.0 1.0 143 143
- 18.3 0 1 cbr 3500 ------- 0 0.0 1.0 143 143
r 18.324 0 1 cbr 3500 ------- 0 0.0 1.0 143 143
+ 18.4 0 1 cbr 3500 ------- 1 0.1 1.1 57 1025
- 18.4 0 1 cbr 3500 ------- 1 0.1 1.1 57 1025
r 18.424 0 1 cbr 3500 ------- 1 0.1 1.1 57 1025
+ 18.5 0 1 cbr 3500 ------- 0 0.0 1.0 161 161
- 18.5 0 1 cbr 3500 ------- 0 0.0 1.0 161 161
r 18.524 0 1 cbr 3500 ------- 0 0.0 1.0 161 161
+ 18.6 0 1 cbr 3500 ------- 1 0.1 1.1 58 1027
- 18.6 0 1 cbr 3500 ------- 1 0.1 1.1 58 1027
r 18.624 0 1 cbr 3500 ------- 1 0.1 1.1 58 1027
+ 18.7 0 1 cbr 3500 ------- 0 0.0 1.0 179 179
- 18.7 0 1 cbr 3500 ------- 0 0.0 1.0 179 179
r 18.724 0 1 cbr 3500 ------- 0 0.0 1.0 179 179
+ 18.8 0 1 cbr 3500 ------- 1 0.1 1.1 59 1029
- 18.8 0 1 cbr 3500 ------- 1 0.1 1.1 59 1029
r 18.824 0 1 cbr 3500 ------- 1 0.1 1.1 59 1029
+ 18.9 0 1 cbr 3500 ------- 0 0.0 1.0 197 197
- 18.9 0 1 cbr 3500 ------- 0 0.0 1.0 197 197
r 18.924 0 1 cbr 3500 ------- 0 0.0 1.0 197 197
+ 19 0 1 cbr 3500 ------- 1 0.1 1.1 60 1031
- 19 0 1 cbr 3500 ------- 1 0.1 1.1 60 1031
r 19.024 0 1 cbr 3500 ------- 1 0.1 1.1 60 1031
+ 19.1 0 1 cbr 3500 ------- 0 0.0 1.0 215 215
- 19.1 0 1 cbr 3500 ------- 0 0.0 1.0 215 215
r 19.124 0 1 cbr 3500 ------- 0 0.0 1.0 215 215
+ 19.2 0 1 cbr 3500 ------- 1 0.1 1.1 61 1033
- 19.2 0 1 cbr 3500 ------- 1 0.1 1.1 61 1033
r 19.224 0 1 cbr 3500 ------- 1 0.1 1.1 61 1033
+ 19.3 0 1 cbr 3500 ------- 0 0.0 1.0 233 233
- 19.3 0 1 cbr 3500 ------- 0 0.0 1.0 233 233
r 19.324 0 1 cbr 3500 ------- 0 0.0 1.0 233 233
+ 19.4 0 1 cbr 3500 ------- 1 0.1 1.1 62 1035
- 19.4 0 1 cbr 3500 ------- 1 0.1 1.1 62 1035
r 19.424 0 1 cbr 3500 ------- 1 0.1 1.1 62 1035
+ 19.5 0 1 cbr 3500 ------- 0 0.0 1.0 250 250
- 19.5 0 1 cbr 3500 ------- 0 0.0 1.0 250 250
r 19.524 0 1 cbr 3500 ------- 0 0.0 1.0 250 250
+ 19.6 0 1 cbr 3500 ------- 1 0.1 1.1 63 1037
- 19.6 0 1 cbr 3500 ------- 1 0.1 1.1 63 1037
r 19.624 0 1 cbr 3500 ------- 1 0.1 1.1 63 1037
+ 19.7 0 1 cbr 3500 ------- 0 0.0 1.0 268 268
- 19.7 0 1 cbr 3500 ------- 0 0.0 1.0 268 268
r 19.724 0 1 cbr 3500 ------- 0 0.0 1.0 268 268
+ 19.8 0 1 cbr 3500 ------- 1 0.1 1.1 64 1039
- 19.8 0 1 cbr 3500 ------- 1 0.1 1.1 64 1039
r 19.824 0 1 cbr 3500 ------- 1 0.1 1.1 64 1039
+ 19.9 0 1 cbr 3500 ------- 0 0.0 1.0 286 286
- 19.9 0 1 cbr 3500 ------- 0 0.0 1.0 286 286
r 19.924 0 1 cbr 3500 ------- 0 0.0 1.0 286 286
+ 20 0 1 cbr 3500 ------- 1 0.1 1.1 65 1041
- 20 0 1 cbr 3500 ------- 1 0.1 1.1 65 1041
r 20.024 0 1 cbr 3500 ------- 1 0.1 1.1 65 1041
+ 20.1 0 1 cbr 3500 ------- 0 0.0 1.0 304 304
- 20.1 0 1 cbr 3500 ------- 0 0.0 1.0 304 304
r 20.124 0 1 cbr 3500 ------- 0 0.0 1.0 304 304
+ 20.2 0 1 cbr 3500 ------- 1 0.1 1.1 66 1043
- 20.2 0 1 cbr 3500 ------- 1 0.1 1.1 66 1043
r 20.224 0 1 cbr 3500 ------- 1 0.1 1.1 66 1043
+ 20.3 0 1 cbr 3500 ------- 0 0.0 1.0 322 322
- 20.3 0 1 cbr 3500 ------- 0 0.0 1.0 322 322
r 20.324 0 1 cbr 3500 ------- 0 0.0 1.0 322 322
+ 20.4 0 1 cbr 3500 ------- 1 0.1 1.1 67 1045
- 20.4 0 1 cbr 3500 ------- 1 0.1 1.1 67 1045
r 20.424 0 1 cbr 3500 ------- 1 0.1 1.1 67 1045
+ 20.5 0 1 cbr 3500 ------- 0 0.0 1.0 340 340
- 20.5 0 1 cbr 3500 ------- 0 0.0 1.0 340 340
r 20.524 0 1 cbr 3500 ------- 0 0.0 1.0 340 340
+ 20.6 0 1 cbr 3500 ------- 1 0.1 1.1 68 1047
- 20.6 0 1 cbr 3500 ------- 1 0.1 1.1 68 1047
r 20.624 0 1 cbr 3500 ------- 1 0.1 1.1 68 1047
+ 20.7 0 1 cbr 3500 ------- 0 0.0 1.0 358 358
- 20.7 0 1 cbr 3500 ------- 0 0.0 1.0 358 358
r 20.724 0 1 cbr 3500 ------- 0 0.0 1.0 358 358
+ 20.8 0 1 cbr 3500 ------- 1 0.1 1.1 69 1049
- 20.8 0 1 cbr 3500 ------- 1 0.1 1.1 69 1049
r 20.824 0 1 cbr 3500 ------- 1 0.1 1.1 69 1049
+ 20.9 0 1 cbr 3500 ------- 0 0.0 1.0 375 375
- 20.9 0 1 cbr 3500 ------- 0 0.0 1.0 375 375
r 20.924 0 1 cbr 3500 ------- 0 0.0 1.0 375 375
+ 21 0 1 cbr 3500 ------- 1 0.1 1.1 70 1051
- 21 0 1 cbr 3500 ------- 1 0.1 1.1 70 1051
r 21.024 0 1 cbr 3500 ------- 1 0.1 1.1 70 1051
+ 21.1 0 1 cbr 3500 ------- 0 0.0 1.0 393 393
- 21.1 0 1 cbr 3500 ------- 0 0.0 1.0 393 393
r 21.124 0 1 cbr 3500 ------- 0 0.0 1.0 393 393
+ 21.2 0 1 cbr 3500 ------- 1 0.1 1.1 71 1053
- 21.2 0 1 cbr 3500 ------- 1 0.1 1.1 71 1053
r 21.224 0 1 cbr 3500 ------- 1 0.1 1.1 71 1053
+ 21.3 0 1 cbr 3500 ------- 0 0.0 1.0 411 411
- 21.3 0 1 cbr 3500 ------- 0 0.0 1.0 411 411
r 21.324 0 1 cbr 3500 ------- 0 0.0 1.0 411 411
+ 21.4 0 1 cbr 3500 ------- 1 0.1 1.1 72 1055
- 21.4 0 1 cbr 3500 ------- 1 0.1 1.1 72 1055
r 21.424 0 1 cbr 3500 ------- 1 0.1 1.1 72 1055
+ 21.5 0 1 cbr 3500 ------- 0 0.0 1.0 429 429
- 21.5 0 1 cbr 3500 ------- 0 0.0 1.0 429 429
r 21.524 0 1 cbr 3500 ------- 0 0.0 1.0 429 429
+ 21.6 0 1 cbr 3500 ------- 1 0.1 1.1 73 1057
- 21.6 0 1 cbr 3500 ------- 1 0.1 1.1 73 1057
r 21.624 0 1 cbr 3500 ------- 1 0.1 1.1 73 1057
+ 21.7 0 1 cbr 3500 ------- 0 0.0 1.0 447 447
- 21.7 0 1 cbr 3500 ------- 0 0.0 1.0 447 447
r 21.724 0 1 cbr 3500 ------- 0 0.0 1.0 447 447
+ 21.8 0 1 cbr 3500 ------- 1 0.1 1.1 74 1059
- 21.8 0 1 cbr 3500 ------- 1 0.1 1.1 74 1059
r 21.824 0 1 cbr 3500 ------- 1 0.1 1.1 74 1059
+ 21.9 0 1 cbr 3500 ------- 0 0.0 1.0 465 465
- 21.9 0 1 cbr 3500 ------- 0 0.0 1.0 465 465
r 21.924 0 1 cbr 3500 ------- 0 0.0 1.0 465 465
+ 22 0 1 cbr 3500 ------- 1 0.1 1.1 75 1061
- 22 0 1 cbr 3500 ------- 1 0.1 1.1 75 1061
r 22.024 0 1 cbr 3500 ------- 1 0.1 1.1 75 1061
+ 22.1 0 1 cbr 3500 ------- 0 0.0 1.0 483 483
- 22.1 0 1 cbr 3500 ------- 0 0.0 1.0 483 483
r 22.124 0 1 cbr 3500 ------- 0 0.0 1.0 483 483
+ 22.2 0 1 cbr 3500 ------- 1 0.1 1.1 76 1063
- 22.2 0 1 cbr 3500 ------- 1 0.1 1.1 76 1063
r 22.224 0 1 cbr 3500 ------- 1 0.1 1.1 76 1063